# vtk DataFile Version 3.0
#This file was generated by the deal.II library on 2015/9/1 at 17:12:52
ASCII
DATASET UNSTRUCTURED_GRID

POINTS 3200 double
0 0 0
0.05 0 0
0 0.05 0
0.05 0.05 0
0.05 0 0
0.1 0 0
0.05 0.05 0
0.1 0.05 0
0.1 0 0
0.15 0 0
0.1 0.05 0
0.15 0.05 0
0.15 0 0
0.2 0 0
0.15 0.05 0
0.2 0.05 0
0.2 0 0
0.25 0 0
0.2 0.05 0
0.25 0.05 0
0.25 0 0
0.3 0 0
0.25 0.05 0
0.3 0.05 0
0.3 0 0
0.35 0 0
0.3 0.05 0
0.35 0.05 0
0.35 0 0
0.4 0 0
0.35 0.05 0
0.4 0.05 0
0.4 0 0
0.45 0 0
0.4 0.05 0
0.45 0.05 0
0.45 0 0
0.5 0 0
0.45 0.05 0
0.5 0.05 0
0.5 0 0
0.55 0 0
0.5 0.05 0
0.55 0.05 0
0.55 0 0
0.6 0 0
0.55 0.05 0
0.6 0.05 0
0.6 0 0
0.65 0 0
0.6 0.05 0
0.65 0.05 0
0.65 0 0
0.7 0 0
0.65 0.05 0
0.7 0.05 0
0.7 0 0
0.75 0 0
0.7 0.05 0
0.75 0.05 0
0.75 0 0
0.8 0 0
0.75 0.05 0
0.8 0.05 0
0.8 0 0
0.85 0 0
0.8 0.05 0
0.85 0.05 0
0.85 0 0
0.9 0 0
0.85 0.05 0
0.9 0.05 0
0.9 0 0
0.95 0 0
0.9 0.05 0
0.95 0.05 0
0.95 0 0
1 0 0
0.95 0.05 0
1 0.05 0
1 0 0
1.05 0 0
1 0.05 0
1.05 0.05 0
1.05 0 0
1.1 0 0
1.05 0.05 0
1.1 0.05 0
1.1 0 0
1.15 0 0
1.1 0.05 0
1.15 0.05 0
1.15 0 0
1.2 0 0
1.15 0.05 0
1.2 0.05 0
1.2 0 0
1.25 0 0
1.2 0.05 0
1.25 0.05 0
1.25 0 0
1.3 0 0
1.25 0.05 0
1.3 0.05 0
1.3 0 0
1.35 0 0
1.3 0.05 0
1.35 0.05 0
1.35 0 0
1.4 0 0
1.35 0.05 0
1.4 0.05 0
1.4 0 0
1.45 0 0
1.4 0.05 0
1.45 0.05 0
1.45 0 0
1.5 0 0
1.45 0.05 0
1.5 0.05 0
1.5 0 0
1.55 0 0
1.5 0.05 0
1.55 0.05 0
1.55 0 0
1.6 0 0
1.55 0.05 0
1.6 0.05 0
1.6 0 0
1.65 0 0
1.6 0.05 0
1.65 0.05 0
1.65 0 0
1.7 0 0
1.65 0.05 0
1.7 0.05 0
1.7 0 0
1.75 0 0
1.7 0.05 0
1.75 0.05 0
1.75 0 0
1.8 0 0
1.75 0.05 0
1.8 0.05 0
1.8 0 0
1.85 0 0
1.8 0.05 0
1.85 0.05 0
1.85 0 0
1.9 0 0
1.85 0.05 0
1.9 0.05 0
1.9 0 0
1.95 0 0
1.9 0.05 0
1.95 0.05 0
1.95 0 0
2 0 0
1.95 0.05 0
2 0.05 0
0 0.05 0
0.05 0.05 0
0 0.1 0
0.05 0.1 0
0.05 0.05 0
0.1 0.05 0
0.05 0.1 0
0.1 0.1 0
0.1 0.05 0
0.15 0.05 0
0.1 0.1 0
0.15 0.1 0
0.15 0.05 0
0.2 0.05 0
0.15 0.1 0
0.2 0.1 0
0.2 0.05 0
0.25 0.05 0
0.2 0.1 0
0.25 0.1 0
0.25 0.05 0
0.3 0.05 0
0.25 0.1 0
0.3 0.1 0
0.3 0.05 0
0.35 0.05 0
0.3 0.1 0
0.35 0.1 0
0.35 0.05 0
0.4 0.05 0
0.35 0.1 0
0.4 0.1 0
0.4 0.05 0
0.45 0.05 0
0.4 0.1 0
0.45 0.1 0
0.45 0.05 0
0.5 0.05 0
0.45 0.1 0
0.5 0.1 0
0.5 0.05 0
0.55 0.05 0
0.5 0.1 0
0.55 0.1 0
0.55 0.05 0
0.6 0.05 0
0.55 0.1 0
0.6 0.1 0
0.6 0.05 0
0.65 0.05 0
0.6 0.1 0
0.65 0.1 0
0.65 0.05 0
0.7 0.05 0
0.65 0.1 0
0.7 0.1 0
0.7 0.05 0
0.75 0.05 0
0.7 0.1 0
0.75 0.1 0
0.75 0.05 0
0.8 0.05 0
0.75 0.1 0
0.8 0.1 0
0.8 0.05 0
0.85 0.05 0
0.8 0.1 0
0.85 0.1 0
0.85 0.05 0
0.9 0.05 0
0.85 0.1 0
0.9 0.1 0
0.9 0.05 0
0.95 0.05 0
0.9 0.1 0
0.95 0.1 0
0.95 0.05 0
1 0.05 0
0.95 0.1 0
1 0.1 0
1 0.05 0
1.05 0.05 0
1 0.1 0
1.05 0.1 0
1.05 0.05 0
1.1 0.05 0
1.05 0.1 0
1.1 0.1 0
1.1 0.05 0
1.15 0.05 0
1.1 0.1 0
1.15 0.1 0
1.15 0.05 0
1.2 0.05 0
1.15 0.1 0
1.2 0.1 0
1.2 0.05 0
1.25 0.05 0
1.2 0.1 0
1.25 0.1 0
1.25 0.05 0
1.3 0.05 0
1.25 0.1 0
1.3 0.1 0
1.3 0.05 0
1.35 0.05 0
1.3 0.1 0
1.35 0.1 0
1.35 0.05 0
1.4 0.05 0
1.35 0.1 0
1.4 0.1 0
1.4 0.05 0
1.45 0.05 0
1.4 0.1 0
1.45 0.1 0
1.45 0.05 0
1.5 0.05 0
1.45 0.1 0
1.5 0.1 0
1.5 0.05 0
1.55 0.05 0
1.5 0.1 0
1.55 0.1 0
1.55 0.05 0
1.6 0.05 0
1.55 0.1 0
1.6 0.1 0
1.6 0.05 0
1.65 0.05 0
1.6 0.1 0
1.65 0.1 0
1.65 0.05 0
1.7 0.05 0
1.65 0.1 0
1.7 0.1 0
1.7 0.05 0
1.75 0.05 0
1.7 0.1 0
1.75 0.1 0
1.75 0.05 0
1.8 0.05 0
1.75 0.1 0
1.8 0.1 0
1.8 0.05 0
1.85 0.05 0
1.8 0.1 0
1.85 0.1 0
1.85 0.05 0
1.9 0.05 0
1.85 0.1 0
1.9 0.1 0
1.9 0.05 0
1.95 0.05 0
1.9 0.1 0
1.95 0.1 0
1.95 0.05 0
2 0.05 0
1.95 0.1 0
2 0.1 0
0 0.1 0
0.05 0.1 0
0 0.15 0
0.05 0.15 0
0.05 0.1 0
0.1 0.1 0
0.05 0.15 0
0.1 0.15 0
0.1 0.1 0
0.15 0.1 0
0.1 0.15 0
0.15 0.15 0
0.15 0.1 0
0.2 0.1 0
0.15 0.15 0
0.2 0.15 0
0.2 0.1 0
0.25 0.1 0
0.2 0.15 0
0.25 0.15 0
0.25 0.1 0
0.3 0.1 0
0.25 0.15 0
0.3 0.15 0
0.3 0.1 0
0.35 0.1 0
0.3 0.15 0
0.35 0.15 0
0.35 0.1 0
0.4 0.1 0
0.35 0.15 0
0.4 0.15 0
0.4 0.1 0
0.45 0.1 0
0.4 0.15 0
0.45 0.15 0
0.45 0.1 0
0.5 0.1 0
0.45 0.15 0
0.5 0.15 0
0.5 0.1 0
0.55 0.1 0
0.5 0.15 0
0.55 0.15 0
0.55 0.1 0
0.6 0.1 0
0.55 0.15 0
0.6 0.15 0
0.6 0.1 0
0.65 0.1 0
0.6 0.15 0
0.65 0.15 0
0.65 0.1 0
0.7 0.1 0
0.65 0.15 0
0.7 0.15 0
0.7 0.1 0
0.75 0.1 0
0.7 0.15 0
0.75 0.15 0
0.75 0.1 0
0.8 0.1 0
0.75 0.15 0
0.8 0.15 0
0.8 0.1 0
0.85 0.1 0
0.8 0.15 0
0.85 0.15 0
0.85 0.1 0
0.9 0.1 0
0.85 0.15 0
0.9 0.15 0
0.9 0.1 0
0.95 0.1 0
0.9 0.15 0
0.95 0.15 0
0.95 0.1 0
1 0.1 0
0.95 0.15 0
1 0.15 0
1 0.1 0
1.05 0.1 0
1 0.15 0
1.05 0.15 0
1.05 0.1 0
1.1 0.1 0
1.05 0.15 0
1.1 0.15 0
1.1 0.1 0
1.15 0.1 0
1.1 0.15 0
1.15 0.15 0
1.15 0.1 0
1.2 0.1 0
1.15 0.15 0
1.2 0.15 0
1.2 0.1 0
1.25 0.1 0
1.2 0.15 0
1.25 0.15 0
1.25 0.1 0
1.3 0.1 0
1.25 0.15 0
1.3 0.15 0
1.3 0.1 0
1.35 0.1 0
1.3 0.15 0
1.35 0.15 0
1.35 0.1 0
1.4 0.1 0
1.35 0.15 0
1.4 0.15 0
1.4 0.1 0
1.45 0.1 0
1.4 0.15 0
1.45 0.15 0
1.45 0.1 0
1.5 0.1 0
1.45 0.15 0
1.5 0.15 0
1.5 0.1 0
1.55 0.1 0
1.5 0.15 0
1.55 0.15 0
1.55 0.1 0
1.6 0.1 0
1.55 0.15 0
1.6 0.15 0
1.6 0.1 0
1.65 0.1 0
1.6 0.15 0
1.65 0.15 0
1.65 0.1 0
1.7 0.1 0
1.65 0.15 0
1.7 0.15 0
1.7 0.1 0
1.75 0.1 0
1.7 0.15 0
1.75 0.15 0
1.75 0.1 0
1.8 0.1 0
1.75 0.15 0
1.8 0.15 0
1.8 0.1 0
1.85 0.1 0
1.8 0.15 0
1.85 0.15 0
1.85 0.1 0
1.9 0.1 0
1.85 0.15 0
1.9 0.15 0
1.9 0.1 0
1.95 0.1 0
1.9 0.15 0
1.95 0.15 0
1.95 0.1 0
2 0.1 0
1.95 0.15 0
2 0.15 0
0 0.15 0
0.05 0.15 0
0 0.2 0
0.05 0.2 0
0.05 0.15 0
0.1 0.15 0
0.05 0.2 0
0.1 0.2 0
0.1 0.15 0
0.15 0.15 0
0.1 0.2 0
0.15 0.2 0
0.15 0.15 0
0.2 0.15 0
0.15 0.2 0
0.2 0.2 0
0.2 0.15 0
0.25 0.15 0
0.2 0.2 0
0.25 0.2 0
0.25 0.15 0
0.3 0.15 0
0.25 0.2 0
0.3 0.2 0
0.3 0.15 0
0.35 0.15 0
0.3 0.2 0
0.35 0.2 0
0.35 0.15 0
0.4 0.15 0
0.35 0.2 0
0.4 0.2 0
0.4 0.15 0
0.45 0.15 0
0.4 0.2 0
0.45 0.2 0
0.45 0.15 0
0.5 0.15 0
0.45 0.2 0
0.5 0.2 0
0.5 0.15 0
0.55 0.15 0
0.5 0.2 0
0.55 0.2 0
0.55 0.15 0
0.6 0.15 0
0.55 0.2 0
0.6 0.2 0
0.6 0.15 0
0.65 0.15 0
0.6 0.2 0
0.65 0.2 0
0.65 0.15 0
0.7 0.15 0
0.65 0.2 0
0.7 0.2 0
0.7 0.15 0
0.75 0.15 0
0.7 0.2 0
0.75 0.2 0
0.75 0.15 0
0.8 0.15 0
0.75 0.2 0
0.8 0.2 0
0.8 0.15 0
0.85 0.15 0
0.8 0.2 0
0.85 0.2 0
0.85 0.15 0
0.9 0.15 0
0.85 0.2 0
0.9 0.2 0
0.9 0.15 0
0.95 0.15 0
0.9 0.2 0
0.95 0.2 0
0.95 0.15 0
1 0.15 0
0.95 0.2 0
1 0.2 0
1 0.15 0
1.05 0.15 0
1 0.2 0
1.05 0.2 0
1.05 0.15 0
1.1 0.15 0
1.05 0.2 0
1.1 0.2 0
1.1 0.15 0
1.15 0.15 0
1.1 0.2 0
1.15 0.2 0
1.15 0.15 0
1.2 0.15 0
1.15 0.2 0
1.2 0.2 0
1.2 0.15 0
1.25 0.15 0
1.2 0.2 0
1.25 0.2 0
1.25 0.15 0
1.3 0.15 0
1.25 0.2 0
1.3 0.2 0
1.3 0.15 0
1.35 0.15 0
1.3 0.2 0
1.35 0.2 0
1.35 0.15 0
1.4 0.15 0
1.35 0.2 0
1.4 0.2 0
1.4 0.15 0
1.45 0.15 0
1.4 0.2 0
1.45 0.2 0
1.45 0.15 0
1.5 0.15 0
1.45 0.2 0
1.5 0.2 0
1.5 0.15 0
1.55 0.15 0
1.5 0.2 0
1.55 0.2 0
1.55 0.15 0
1.6 0.15 0
1.55 0.2 0
1.6 0.2 0
1.6 0.15 0
1.65 0.15 0
1.6 0.2 0
1.65 0.2 0
1.65 0.15 0
1.7 0.15 0
1.65 0.2 0
1.7 0.2 0
1.7 0.15 0
1.75 0.15 0
1.7 0.2 0
1.75 0.2 0
1.75 0.15 0
1.8 0.15 0
1.75 0.2 0
1.8 0.2 0
1.8 0.15 0
1.85 0.15 0
1.8 0.2 0
1.85 0.2 0
1.85 0.15 0
1.9 0.15 0
1.85 0.2 0
1.9 0.2 0
1.9 0.15 0
1.95 0.15 0
1.9 0.2 0
1.95 0.2 0
1.95 0.15 0
2 0.15 0
1.95 0.2 0
2 0.2 0
0 0.2 0
0.05 0.2 0
0 0.25 0
0.05 0.25 0
0.05 0.2 0
0.1 0.2 0
0.05 0.25 0
0.1 0.25 0
0.1 0.2 0
0.15 0.2 0
0.1 0.25 0
0.15 0.25 0
0.15 0.2 0
0.2 0.2 0
0.15 0.25 0
0.2 0.25 0
0.2 0.2 0
0.25 0.2 0
0.2 0.25 0
0.25 0.25 0
0.25 0.2 0
0.3 0.2 0
0.25 0.25 0
0.3 0.25 0
0.3 0.2 0
0.35 0.2 0
0.3 0.25 0
0.35 0.25 0
0.35 0.2 0
0.4 0.2 0
0.35 0.25 0
0.4 0.25 0
0.4 0.2 0
0.45 0.2 0
0.4 0.25 0
0.45 0.25 0
0.45 0.2 0
0.5 0.2 0
0.45 0.25 0
0.5 0.25 0
0.5 0.2 0
0.55 0.2 0
0.5 0.25 0
0.55 0.25 0
0.55 0.2 0
0.6 0.2 0
0.55 0.25 0
0.6 0.25 0
0.6 0.2 0
0.65 0.2 0
0.6 0.25 0
0.65 0.25 0
0.65 0.2 0
0.7 0.2 0
0.65 0.25 0
0.7 0.25 0
0.7 0.2 0
0.75 0.2 0
0.7 0.25 0
0.75 0.25 0
0.75 0.2 0
0.8 0.2 0
0.75 0.25 0
0.8 0.25 0
0.8 0.2 0
0.85 0.2 0
0.8 0.25 0
0.85 0.25 0
0.85 0.2 0
0.9 0.2 0
0.85 0.25 0
0.9 0.25 0
0.9 0.2 0
0.95 0.2 0
0.9 0.25 0
0.95 0.25 0
0.95 0.2 0
1 0.2 0
0.95 0.25 0
1 0.25 0
1 0.2 0
1.05 0.2 0
1 0.25 0
1.05 0.25 0
1.05 0.2 0
1.1 0.2 0
1.05 0.25 0
1.1 0.25 0
1.1 0.2 0
1.15 0.2 0
1.1 0.25 0
1.15 0.25 0
1.15 0.2 0
1.2 0.2 0
1.15 0.25 0
1.2 0.25 0
1.2 0.2 0
1.25 0.2 0
1.2 0.25 0
1.25 0.25 0
1.25 0.2 0
1.3 0.2 0
1.25 0.25 0
1.3 0.25 0
1.3 0.2 0
1.35 0.2 0
1.3 0.25 0
1.35 0.25 0
1.35 0.2 0
1.4 0.2 0
1.35 0.25 0
1.4 0.25 0
1.4 0.2 0
1.45 0.2 0
1.4 0.25 0
1.45 0.25 0
1.45 0.2 0
1.5 0.2 0
1.45 0.25 0
1.5 0.25 0
1.5 0.2 0
1.55 0.2 0
1.5 0.25 0
1.55 0.25 0
1.55 0.2 0
1.6 0.2 0
1.55 0.25 0
1.6 0.25 0
1.6 0.2 0
1.65 0.2 0
1.6 0.25 0
1.65 0.25 0
1.65 0.2 0
1.7 0.2 0
1.65 0.25 0
1.7 0.25 0
1.7 0.2 0
1.75 0.2 0
1.7 0.25 0
1.75 0.25 0
1.75 0.2 0
1.8 0.2 0
1.75 0.25 0
1.8 0.25 0
1.8 0.2 0
1.85 0.2 0
1.8 0.25 0
1.85 0.25 0
1.85 0.2 0
1.9 0.2 0
1.85 0.25 0
1.9 0.25 0
1.9 0.2 0
1.95 0.2 0
1.9 0.25 0
1.95 0.25 0
1.95 0.2 0
2 0.2 0
1.95 0.25 0
2 0.25 0
0 0.25 0
0.05 0.25 0
0 0.3 0
0.05 0.3 0
0.05 0.25 0
0.1 0.25 0
0.05 0.3 0
0.1 0.3 0
0.1 0.25 0
0.15 0.25 0
0.1 0.3 0
0.15 0.3 0
0.15 0.25 0
0.2 0.25 0
0.15 0.3 0
0.2 0.3 0
0.2 0.25 0
0.25 0.25 0
0.2 0.3 0
0.25 0.3 0
0.25 0.25 0
0.3 0.25 0
0.25 0.3 0
0.3 0.3 0
0.3 0.25 0
0.35 0.25 0
0.3 0.3 0
0.35 0.3 0
0.35 0.25 0
0.4 0.25 0
0.35 0.3 0
0.4 0.3 0
0.4 0.25 0
0.45 0.25 0
0.4 0.3 0
0.45 0.3 0
0.45 0.25 0
0.5 0.25 0
0.45 0.3 0
0.5 0.3 0
0.5 0.25 0
0.55 0.25 0
0.5 0.3 0
0.55 0.3 0
0.55 0.25 0
0.6 0.25 0
0.55 0.3 0
0.6 0.3 0
0.6 0.25 0
0.65 0.25 0
0.6 0.3 0
0.65 0.3 0
0.65 0.25 0
0.7 0.25 0
0.65 0.3 0
0.7 0.3 0
0.7 0.25 0
0.75 0.25 0
0.7 0.3 0
0.75 0.3 0
0.75 0.25 0
0.8 0.25 0
0.75 0.3 0
0.8 0.3 0
0.8 0.25 0
0.85 0.25 0
0.8 0.3 0
0.85 0.3 0
0.85 0.25 0
0.9 0.25 0
0.85 0.3 0
0.9 0.3 0
0.9 0.25 0
0.95 0.25 0
0.9 0.3 0
0.95 0.3 0
0.95 0.25 0
1 0.25 0
0.95 0.3 0
1 0.3 0
1 0.25 0
1.05 0.25 0
1 0.3 0
1.05 0.3 0
1.05 0.25 0
1.1 0.25 0
1.05 0.3 0
1.1 0.3 0
1.1 0.25 0
1.15 0.25 0
1.1 0.3 0
1.15 0.3 0
1.15 0.25 0
1.2 0.25 0
1.15 0.3 0
1.2 0.3 0
1.2 0.25 0
1.25 0.25 0
1.2 0.3 0
1.25 0.3 0
1.25 0.25 0
1.3 0.25 0
1.25 0.3 0
1.3 0.3 0
1.3 0.25 0
1.35 0.25 0
1.3 0.3 0
1.35 0.3 0
1.35 0.25 0
1.4 0.25 0
1.35 0.3 0
1.4 0.3 0
1.4 0.25 0
1.45 0.25 0
1.4 0.3 0
1.45 0.3 0
1.45 0.25 0
1.5 0.25 0
[...]
POINT_DATA 3200
SCALARS Density double 1
LOOKUP_TABLE default
1 1 1 1 1 1 1 1 1 1 1 1 1 1 1 1 1 1 1 1 1 1 1 1 1 1 1 1 1 1 1 1 1 1 1 1 1 1 1 1 1 1 1 1 1 1 1 1 1 1 1 1 1 1 1 1 1 1 1 1 0.999756 0.999756 0.999756 0.999756 0.997032 0.997032 0.997032 0.997032 0.988542 0.988542 0.988542 0.988542 0.978832 0.978832 0.978832 0.978832 0.970569 0.970569 0.970569 0.970569 0.965003 0.965003 0.965003 0.965003 0.96328 0.96328 0.96328 0.96328 0.966335 0.966335 0.966335 0.966335 0.975593 0.975593 0.975593 0.975593 0.956992 0.956992 0.956992 0.956992 0.829728 0.829728 0.829728 0.829728 0.658886 0.658886 0.658886 0.658886 0.481319 0.481319 0.481319 0.481319 0.303217 0.303217 0.303217 0.303217 0.15936 0.15936 0.15936 0.15936 0.0669939 0.0669939 0.0669939 0.0669939 0.0209653 0.0209653 0.0209653 0.0209653 0.00450055 0.00450055 0.00450055 0.00450055 0.000613627 0.000613627 0.000613627 0.000613627 5.50392e-05 5.50392e-05 5.50392e-05 5.50392e-05 1.13628e-05 1.13628e-05 1.13628e-05 1.13628e-05 1e-05 1e-05 1e-05 1e-05 1e-05 1e-05 1e-05 1e-05 1e-05 1e-05 1e-05 1e-05 1e-05 1e-05 1e-05 1e-05 0.842082 0.842082 0.842082 0.842082 0.881626 0.881626 0.881626 0.881626 0.949565 0.949565 0.949565 0.949565 0.989088 0.989088 0.989088 0.989088 0.98663 0.98663 0.98663 0.98663 0.964554 0.964554 0.964554 0.964554 0.941419 0.941419 0.941419 0.941419 0.922774 0.922774 0.922774 0.922774 0.907241 0.907241 0.907241 0.907241 0.893215 0.893215 0.893215 0.893215 0.880702 0.880702 0.880702 0.880702 0.870179 0.870179 0.870179 0.870179 0.862243 0.862243 0.862243 0.862243 0.85727 0.85727 0.85727 0.85727 0.855267 0.855267 0.855267 0.855267 0.855281 0.855281 0.855281 0.855281 0.849943 0.849943 0.849943 0.849943 0.82891 0.82891 0.82891 0.82891 0.804549 0.804549 0.804549 0.804549 0.784399 0.784399 0.784399 0.784399 0.772185 0.772185 0.772185 0.772185 0.772044 0.772044 0.772044 0.772044 0.787438 0.787438 0.787438 0.787438 0.822903 0.822903 0.822903 0.822903 0.866113 0.866113 0.866113 0.866113 0.876169 0.876169 0.876169 0.876169 0.86574 0.86574 0.86574 0.86574 0.826348 0.826348 0.826348 0.826348 0.685727 0.685727 0.685727 0.685727 0.487674 0.487674 0.487674 0.487674 0.291037 0.291037 0.291037 0.291037 0.139555 0.139555 0.139555 0.139555 0.050135 0.050135 0.050135 0.050135 0.0121275 0.0121275 0.0121275 0.0121275 0.0017644 0.0017644 0.0017644 0.0017644 0.000144351 0.000144351 0.000144351 0.000144351 1.43701e-05 1.43701e-05 1.43701e-05 1.43701e-05 1e-05 1e-05 1e-05 1e-05 1e-05 1e-05 1e-05 1e-05 1e-05 1e-05 1e-05 1e-05 0.311328 0.311328 0.311328 0.311328 0.446258 0.446258 0.446258 0.446258 0.697322 0.697322 0.697322 0.697322 0.873311 0.873311 0.873311 0.873311 0.901524 0.901524 0.901524 0.901524 0.83648 0.83648 0.83648 0.83648 0.746646 0.746646 0.746646 0.746646 0.666582 0.666582 0.666582 0.666582 0.600847 0.600847 0.600847 0.600847 0.545026 0.545026 0.545026 0.545026 0.497363 0.497363 0.497363 0.497363 0.458535 0.458535 0.458535 0.458535 0.430268 0.430268 0.430268 0.430268 0.414076 0.414076 0.414076 0.414076 0.409594 0.409594 0.409594 0.409594 0.414678 0.414678 0.414678 0.414678 0.424242 0.424242 0.424242 0.424242 0.431458 0.431458 0.431458 0.431458 0.438069 0.438069 0.438069 0.438069 0.445467 0.445467 0.445467 0.445467 0.455022 0.455022 0.455022 0.455022 0.469819 0.469819 0.469819 0.469819 0.492154 0.492154 0.492154 0.492154 0.522473 0.522473 0.522473 0.522473 0.563456 0.563456 0.563456 0.563456 0.620877 0.620877 0.620877 0.620877 0.706465 0.706465 0.706465 0.706465 0.806714 0.806714 0.806714 0.806714 0.858297 0.858297 0.858297 0.858297 0.82863 0.82863 0.82863 0.82863 0.689866 0.689866 0.689866 0.689866 0.473992 0.473992 0.473992 0.473992 0.258716 0.258716 0.258716 0.258716 0.104175 0.104175 0.104175 0.104175 0.0277794 0.0277794 0.0277794 0.0277794 0.00431401 0.00431401 0.00431401 0.00431401 0.000335553 0.000335553 0.000335553 0.000335553 1.9551e-05 1.9551e-05 1.9551e-05 1.9551e-05 1e-05 1e-05 1e-05 1e-05 1e-05 1e-05 1e-05 1e-05 0.0839688 0.0839688 0.0839688 0.0839688 0.148071 0.148071 0.148071 0.148071 0.328492 0.328492 0.328492 0.328492 0.553361 0.553361 0.553361 0.553361 0.71243 0.71243 0.71243 0.71243 0.747603 0.747603 0.747603 0.747603 0.687656 0.687656 0.687656 0.687656 0.597249 0.597249 0.597249 0.597249 0.518167 0.518167 0.518167 0.518167 0.459104 0.459104 0.459104 0.459104 0.415389 0.415389 0.415389 0.415389 0.383299 0.383299 0.383299 0.383299 0.362022 0.362022 0.362022 0.362022 0.352667 0.352667 0.352667 0.352667 0.354543 0.354543 0.354543 0.354543 0.363642 0.363642 0.363642 0.363642 0.376159 0.376159 0.376159 0.376159 0.388705 0.388705 0.388705 0.388705 0.40006 0.40006 0.40006 0.40006 0.41045 0.41045 0.41045 0.41045 0.419853 0.419853 0.419853 0.419853 0.42704 0.42704 0.42704 0.42704 0.429438 0.429438 0.429438 0.429438 0.423424 0.423424 0.423424 0.423424 0.409669 0.409669 0.409669 0.409669 0.399524 0.399524 0.399524 0.399524 0.414414 0.414414 0.414414 0.414414 0.477691 0.477691 0.477691 0.477691 0.599231 0.599231 0.599231 0.599231 0.751125 0.751125 0.751125 0.751125 0.843213 0.843213 0.843213 0.843213 0.808411 0.808411 0.808411 0.808411 0.644267 0.644267 0.644267 0.644267 0.399603 0.399603 0.399603 0.399603 0.178598 0.178598 0.178598 0.178598 0.0520079 0.0520079 0.0520079 0.0520079 0.00856402 0.00856402 0.00856402 0.00856402 0.00065362 0.00065362 0.00065362 0.00065362 2.72137e-05 2.72137e-05 2.72137e-05 2.72137e-05 1e-05 1e-05 1e-05 1e-05 0.0278766 0.0278766 0.0278766 0.0278766 0.0405251 0.0405251 0.0405251 0.0405251 0.11745 0.11745 0.11745 0.11745 0.28219 0.28219 0.28219 0.28219 0.492545 0.492545 0.492545 0.492545 0.651843 0.651843 0.651843 0.651843 0.700787 0.700787 0.700787 0.700787 0.664397 0.664397 0.664397 0.664397 0.60002 0.60002 0.60002 0.60002 0.542665 0.542665 0.542665 0.542665 0.49981 0.49981 0.49981 0.49981 0.467414 0.467414 0.467414 0.467414 0.442099 0.442099 0.442099 0.442099 0.42311 0.42311 0.42311 0.42311 0.411537 0.411537 0.411537 0.411537 0.407011 0.407011 0.407011 0.407011 0.407295 0.407295 0.407295 0.407295 0.410981 0.410981 0.410981 0.410981 0.417099 0.417099 0.417099 0.417099 0.42455 0.42455 0.42455 0.42455 0.4318 0.4318 0.4318 0.4318 0.436096 0.436096 0.436096 0.436096 0.433122 0.433122 0.433122 0.433122 0.419209 0.419209 0.419209 0.419209 0.39383 0.39383 0.39383 0.39383 0.360354 0.360354 0.360354 0.360354 0.326604 0.326604 0.326604 0.326604 0.308349 0.308349 0.308349 0.308349 0.33039 0.33039 0.33039 0.33039 0.421215 0.421215 0.421215 0.421215 0.586171 0.586171 0.586171 0.586171 0.765792 0.765792 0.765792 0.765792 0.844756 0.844756 0.844756 0.844756 0.771205 0.771205 0.771205 0.771205 0.540425 0.540425 0.540425 0.540425 0.267988 0.267988 0.267988 0.267988 0.084218 0.084218 0.084218 0.084218 0.0146741 0.0146741 0.0146741 0.0146741 0.00118689 0.00118689 0.00118689 0.00118689 4.58708e-05 4.58708e-05 4.58708e-05 4.58708e-05 0.00816956 0.00816956 0.00816956 0.00816956 0.0102901 0.0102901 0.0102901 0.0102901 0.0372943 0.0372943 0.0372943 0.0372943 0.120896 0.120896 0.120896 0.120896 0.276671 0.276671 0.276671 0.276671 0.463569 0.463569 0.463569 0.463569 0.604964 0.604964 0.604964 0.604964 0.660895 0.660895 0.660895 0.660895 0.649714 0.649714 0.649714 0.649714 0.612263 0.612263 0.612263 0.612263 0.575011 0.575011 0.575011 0.575011 0.544424 0.544424 0.544424 0.544424 0.518292 0.518292 0.518292 0.518292 0.494335 0.494335 0.494335 0.494335 0.471713 0.471713 0.471713 0.471713 0.452393 0.452393 0.452393 0.452393 0.439442 0.439442 0.439442 0.439442 0.432927 0.432927 0.432927 0.432927 0.431788 0.431788 0.431788 0.431788 0.434103 0.434103 0.434103 0.434103 0.436841 0.436841 0.436841 0.436841 0.435931 0.435931 0.435931 0.435931 0.427641 0.427641 0.427641 0.427641 0.410366 0.410366 0.410366 0.410366 0.385246 0.385246 0.385246 0.385246 0.354913 0.354913 0.354913 0.354913 0.322276 0.322276 0.322276 0.322276 0.290104 0.290104 0.290104 0.290104 0.263267 0.263267 0.263267 0.263267 0.258156 0.258156 0.258156 0.258156 0.304426 0.304426 0.304426 0.304426 0.432872 0.432872 0.432872 0.432872 0.634618 0.634618 0.634618 0.634618 0.811504 0.811504 0.811504 0.811504 0.836672 0.836672 0.836672 0.836672 0.664857 0.664857 0.664857 0.664857 0.368425 0.368425 0.368425 0.368425 0.12877 0.12877 0.12877 0.12877 0.0241455 0.0241455 0.0241455 0.0241455 0.00212499 0.00212499 0.00212499 0.00212499 0.00224235 0.00224235 0.00224235 0.00224235 0.00239598 0.00239598 0.00239598 0.00239598 0.0106788 0.0106788 0.0106788 0.0106788 0.0459053 0.0459053 0.0459053 0.0459053 0.135274 0.135274 0.135274 0.135274 0.284138 0.284138 0.284138 0.284138 0.450365 0.450365 0.450365 0.450365 0.574293 0.574293 0.574293 0.574293 0.63081 0.63081 0.63081 0.63081 0.635878 0.635878 0.635878 0.635878 0.617857 0.617857 0.617857 0.617857 0.595353 0.595353 0.595353 0.595353 0.573281 0.573281 0.573281 0.573281 0.55045 0.55045 0.55045 0.55045 0.525969 0.525969 0.525969 0.525969 0.500954 0.500954 0.500954 0.500954 0.478799 0.478799 0.478799 0.478799 0.463154 0.463154 0.463154 0.463154 0.454015 0.454015 0.454015 0.454015 0.448665 0.448665 0.448665 0.448665 0.443232 0.443232 0.443232 0.443232 0.43388 0.43388 0.43388 0.43388 0.418333 0.418333 0.418333 0.418333 0.396694 0.396694 0.396694 0.396694 0.370909 0.370909 0.370909 0.370909 0.343372 0.343372 0.343372 0.343372 0.315729 0.315729 0.315729 0.315729 0.288608 0.288608 0.288608 0.288608 0.262841 0.262841 0.262841 0.262841 0.24043 0.24043 0.24043 0.24043 0.226594 0.226594 0.226594 0.226594 0.242422 0.242422 0.242422 0.242422 0.324007 0.324007 0.324007 0.324007 0.495099 0.495099 0.495099 0.495099 0.7147 0.7147 0.7147 0.7147 0.841662 0.841662 0.841662 0.841662 0.778505 0.778505 0.778505 0.778505 0.473967 0.473967 0.473967 0.473967 0.186417 0.186417 0.186417 0.186417 0.0403665 0.0403665 0.0403665 0.0403665 0.000343996 0.000343996 0.000343996 0.000343996 0.000417024 0.000417024 0.000417024 0.000417024 0.00285824 0.00285824 0.00285824 0.00285824 0.0164147 0.0164147 0.0164147 0.0164147 0.0618848 0.0618848 0.0618848 0.0618848 0.159835 0.159835 0.159835 0.159835 0.301675 0.301675 0.301675 0.301675 0.444317 0.444317 0.444317 0.444317 0.54628 0.54628 0.54628 0.54628 0.597942 0.597942 0.597942 0.597942 0.612821 0.612821 0.612821 0.612821 0.607489 0.607489 0.607489 0.607489 0.593389 0.593389 0.593389 0.593389 0.575616 0.575616 0.575616 0.575616 0.5555 0.5555 0.5555 0.5555 0.53383 0.53383 0.53383 0.53383 0.512163 0.512163 0.512163 0.512163 0.492869 0.492869 0.492869 0.492869 0.477026 0.477026 0.477026 0.477026 0.463041 0.463041 0.463041 0.463041 0.44795 0.44795 0.44795 0.44795 0.429542 0.429542 0.429542 0.429542 0.407418 0.407418 0.407418 0.407418 0.382815 0.382815 0.382815 0.382815 0.357562 0.357562 0.357562 0.357562 0.332888 0.332888 0.332888 0.332888 0.30895 0.30895 0.30895 0.30895 0.285473 0.285473 0.285473 0.285473 0.262717 0.262717 0.262717 0.262717 0.241475 0.241475 0.241475 0.241475 0.22308 0.22308 0.22308 0.22308 0.210289 0.210289 0.210289 0.210289 0.212677 0.212677 0.212677 0.212677 0.258658 0.258658 0.258658 0.258658 0.382394 0.382394 0.382394 0.382394 0.597198 0.597198 0.597198 0.597198 0.821108 0.821108 0.821108 0.821108 0.816303 0.816303 0.816303 0.816303 0.577564 0.577564 0.577564 0.577564 0.257573 0.257573 0.257573 0.257573 2.60969e-05 2.60969e-05 2.60969e-05 2.60969e-05 6.2648e-05 6.2648e-05 6.2648e-05 6.2648e-05 0.000697969 0.000697969 0.000697969 0.000697969 0.00551549 0.00551549 0.00551549 0.00551549 0.0267438 0.0267438 0.0267438 0.0267438 0.0840221 0.0840221 0.0840221 0.0840221 0.185441 0.185441 0.185441 0.185441 0.311537 0.311537 0.311537 0.311537 0.428317 0.428317 0.428317 0.428317 0.513098 0.513098 0.513098 0.513098 0.562251 0.562251 0.562251 0.562251 0.582852 0.582852 0.582852 0.582852 0.584885 0.584885 0.584885 0.584885 0.577106 0.577106 0.577106 0.577106 0.564867 0.564867 0.564867 0.564867 0.550372 0.550372 0.550372 0.550372 0.534148 0.534148 0.534148 0.534148 0.516153 0.516153 0.516153 0.516153 0.496479 0.496479 0.496479 0.496479 0.474853 0.474853 0.474853 0.474853 0.450786 0.450786 0.450786 0.450786 0.424506 0.424506 0.424506 0.424506 0.397286 0.397286 0.397286 0.397286 0.370877 0.370877 0.370877 0.370877 0.346586 0.346586 0.346586 0.346586 0.324601 0.324601 0.324601 0.324601 0.304022 0.304022 0.304022 0.304022 0.283625 0.283625 0.283625 0.283625 0.262811 0.262811 0.262811 0.262811 0.242188 0.242188 0.242188 0.242188 0.223227 0.223227 0.223227 0.223227 0.207517 0.207517 0.207517 0.207517 0.197871 0.197871 0.197871 0.197871 0.200527 0.200527 0.200527 0.200527 0.231774 0.231774 0.231774 0.231774 0.326058 0.326058 0.326058 0.326058 0.515876 0.515876 0.515876 0.515876 0.746402 0.746402 0.746402 0.746402 0.810894 0.810894 0.810894 0.810894 0.679448 0.679448 0.679448 0.679448 1e-05 1e-05 1e-05 1e-05 1.61506e-05 1.61506e-05 1.61506e-05 1.61506e-05 0.000176302 0.000176302 0.000176302 0.000176302 0.00188089 0.00188089 0.00188089 0.00188089 0.0115253 0.0115253 0.0115253 0.0115253 0.0439553 0.0439553 0.0439553 0.0439553 0.114169 0.114169 0.114169 0.114169 0.219743 0.219743 0.219743 0.219743 0.337365 0.337365 0.337365 0.337365 0.439506 0.439506 0.439506 0.439506 0.511016 0.511016 0.511016 0.511016 0.551448 0.551448 0.551448 0.551448 0.568215 0.568215 0.568215 0.568215 0.570329 0.570329 0.570329 0.570329 0.565006 0.565006 0.565006 0.565006 0.556108 0.556108 0.556108 0.556108 0.544298 0.544298 0.544298 0.544298 0.528439 0.528439 0.528439 0.528439 0.507424 0.507424 0.507424 0.507424 0.481433 0.481433 0.481433 0.481433 0.451939 0.451939 0.451939 0.451939 0.421089 0.421089 0.421089 0.421089 0.391139 0.391139 0.391139 0.391139 0.363932 0.363932 0.363932 0.363932 0.34034 0.34034 0.34034 0.34034 0.319931 0.319931 0.319931 0.319931 0.301224 0.301224 0.301224 0.301224 0.282548 0.282548 0.282548 0.282548 0.263037 0.263037 0.263037 0.263037 0.24306 0.24306 0.24306 0.24306 0.223854 0.223854 0.223854 0.223854 0.207062 0.207062 0.207062 0.207062 0.194697 0.194697 0.194697 0.194697 0.190234 0.190234 0.190234 0.190234 0.200931 0.200931 0.200931 0.200931 0.239052 0.239052 0.239052 0.239052 0.333184 0.333184 0.333184 0.333184 0.515756 0.515756 0.515756 0.515756 0.730361 0.730361 0.730361 0.730361 0.896624 0.896624 0.896624 0.896624 1e-05 1e-05 1e-05 1e-05 1.61506e-05 1.61506e-05 1.61506e-05 1.61506e-05 0.000176302 0.000176302 0.000176302 0.000176302 0.00188089 0.00188089 0.00188089 0.00188089 0.0115253 0.0115253 0.0115253 0.0115253 0.0439553 0.0439553 0.0439553 0.0439553 0.114169 0.114169 0.114169 0.114169 0.219743 0.219743 0.219743 0.219743 0.337365 0.337365 0.337365 0.337365 0.439506 0.439506 0.439506 0.439506 0.511016 0.511016 0.511016 0.511016 0.551448 0.551448 0.551448 0.551448 0.568215 0.568215 0.568215 0.568215 0.570329 0.570329 0.570329 0.570329 0.565006 0.565006 0.565006 0.565006 0.556108 0.556108 0.556108 0.556108 0.544298 0.544298 0.544298 0.544298 0.528439 0.528439 0.528439 0.528439 0.507424 0.507424 0.507424 0.507424 0.481433 0.481433 0.481433 0.481433 0.451939 0.451939 0.451939 0.451939 0.421089 0.421089 0.421089 0.421089 0.391139 0.391139 0.391139 0.391139 0.363932 0.363932 0.363932 0.363932 0.34034 0.34034 0.34034 0.34034 0.319931 0.319931 0.319931 0.319931 0.301224 0.301224 0.301224 0.301224 0.282548 0.282548 0.282548 0.282548 0.263037 0.263037 0.263037 0.263037 0.24306 0.24306 0.24306 0.24306 0.223854 0.223854 0.223854 0.223854 0.207062 0.207062 0.207062 0.207062 0.194697 0.194697 0.194697 0.194697 0.190234 0.190234 0.190234 0.190234 0.200931 0.200931 0.200931 0.200931 0.239052 0.239052 0.239052 0.239052 0.333184 0.333184 0.333184 0.333184 0.515756 0.515756 0.515756 0.515756 0.730361 0.730361 0.730361 0.730361 0.896624 0.896624 0.896624 0.896624 2.60969e-05 2.60969e-05 2.60969e-05 2.60969e-05 6.2648e-05 6.2648e-05 6.2648e-05 6.2648e-05 0.000697969 0.000697969 0.000697969 0.000697969 0.00551549 0.00551549 0.00551549 0.00551549 0.0267438 0.0267438 0.0267438 0.0267438 0.0840221 0.0840221 0.0840221 0.0840221 0.185441 0.185441 0.185441 0.185441 0.311537 0.311537 0.311537 0.311537 0.428317 0.428317 0.428317 0.428317 0.513098 0.513098 0.513098 0.513098 0.562251 0.562251 0.562251 0.562251 0.582852 0.582852 0.582852 0.582852 0.584885 0.584885 0.584885 0.584885 0.577106 0.577106 0.577106 0.577106 0.564867 0.564867 0.564867 0.564867 0.550372 0.550372 0.550372 0.550372 0.534148 0.534148 0.534148 0.534148 0.516153 0.516153 0.516153 0.516153 0.496479 0.496479 0.496479 0.496479 0.474853 0.474853 0.474853 0.474853 0.450786 0.450786 0.450786 0.450786 0.424506 0.424506 0.424506 0.424506 0.397286 0.397286 0.397286 0.397286 0.370877 0.370877 0.370877 0.370877 0.346586 0.346586 0.346586 0.346586 0.324601 0.324601 0.324601 0.324601 0.304022 0.304022 0.304022 0.304022 0.283625 0.283625 0.283625 0.283625 0.262811 0.262811 0.262811 0.262811 0.242188 0.242188 0.242188 0.242188 0.223227 0.223227 0.223227 0.223227 0.207517 0.207517 0.207517 0.207517 0.197871 0.197871 0.197871 0.197871 0.200527 0.200527 0.200527 0.200527 0.231774 0.231774 0.231774 0.231774 0.326058 0.326058 0.326058 0.326058 0.515876 0.515876 0.515876 0.515876 0.746402 0.746402 0.746402 0.746402 0.810894 0.810894 0.810894 0.810894 0.679448 0.679448 0.679448 0.679448 0.000343996 0.000343996 0.000343996 0.000343996 0.000417024 0.000417024 0.000417024 0.000417024 0.00285824 0.00285824 0.00285824 0.00285824 0.0164147 0.0164147 0.0164147 0.0164147 0.0618848 0.0618848 0.0618848 0.0618848 0.159835 0.159835 0.159835 0.159835 0.301675 0.301675 0.301675 0.301675 0.444317 0.444317 0.444317 0.444317 0.54628 0.54628 0.54628 0.54628 0.597942 0.597942 0.597942 0.597942 0.612821 0.612821 0.612821 0.612821 0.607489 0.607489 0.607489 0.607489 0.593389 0.593389 0.593389 0.593389 0.575616 0.575616 0.575616 0.575616 0.5555 0.5555 0.5555 0.5555 0.53383 0.53383 0.53383 0.53383 0.512163 0.512163 0.512163 0.512163 0.492869 0.492869 0.492869 0.492869 0.477026 0.477026 0.477026 0.477026 0.463041 0.463041 0.463041 0.463041 0.44795 0.44795 0.44795 0.44795 0.429542 0.429542 0.429542 0.429542 0.407418 0.407418 0.407418 0.407418 0.382815 0.382815 0.382815 0.382815 0.357562 0.357562 0.357562 0.357562 0.332888 0.332888 0.332888 0.332888 0.30895 0.30895 0.30895 0.30895 0.285473 0.285473 0.285473 0.285473 0.262717 0.262717 0.262717 0.262717 0.241475 0.241475 0.241475 0.241475 0.22308 0.22308 0.22308 0.22308 0.210289 0.210289 0.210289 0.210289 0.212677 0.212677 0.212677 0.212677 0.258658 0.258658 0.258658 0.258658 0.382394 0.382394 0.382394 0.382394 0.597198 0.597198 0.597198 0.597198 0.821108 0.821108 0.821108 0.821108 0.816303 0.816303 0.816303 0.816303 0.577564 0.577564 0.577564 0.577564 0.257573 0.257573 0.257573 0.257573 0.00224235 0.00224235 0.00224235 0.00224235 0.00239598 0.00239598 0.00239598 0.00239598 0.0106788 0.0106788 0.0106788 0.0106788 0.0459053 0.0459053 0.0459053 0.0459053 0.135274 0.135274 0.135274 0.135274 0.284138 0.284138 0.284138 0.284138 0.450365 0.450365 0.450365 0.450365 0.574293 0.574293 0.574293 0.574293 0.63081 0.63081 0.63081 0.63081 0.635878 0.635878 0.635878 0.635878 0.617857 0.617857 0.617857 0.617857 0.595353 0.595353 0.595353 0.595353 0.573281 0.573281 0.573281 0.573281 0.55045 0.55045 0.55045 0.55045 0.525969 0.525969 0.525969 0.525969 0.500954 0.500954 0.500954 0.500954 0.478799 0.478799 0.478799 0.478799 0.463154 0.463154 0.463154 0.463154 0.454015 0.454015 0.454015 0.454015 0.448665 0.448665 0.448665 0.448665 0.443232 0.443232 0.443232 0.443232 0.43388 0.43388 0.43388 0.43388 0.418333 0.418333 0.418333 0.418333 0.396694 0.396694 0.396694 0.396694 0.370909 0.370909 0.370909 0.370909 0.343372 0.343372 0.343372 0.343372 0.315729 0.315729 0.315729 0.315729 0.288608 0.288608 0.288608 0.288608 0.262841 0.262841 0.262841 0.262841 0.24043 0.24043 0.24043 0.24043 0.226594 0.226594 0.226594 0.226594 0.242422 0.242422 0.242422 0.242422 0.324007 0.324007 0.324007 0.324007 0.495099 0.495099 0.495099 0.495099 0.7147 0.7147 0.7147 0.7147 0.841662 0.841662 0.841662 0.841662 0.778505 0.778505 0.778505 0.778505 0.473967 0.473967 0.473967 0.473967 0.186417 0.186417 0.186417 0.186417 0.0403665 0.0403665 0.0403665 0.0403665 0.00816956 0.00816956 0.008169