# vtk DataFile Version 3.0
#This file was generated by the deal.II library on 2015/9/3 at 12: 1: 3
ASCII
DATASET UNSTRUCTURED_GRID

POINTS 11636 double
0 0 0
0.05 0 0
0 0.05 0
0.05 0.05 0
0.05 0 0
0.1 0 0
0.05 0.05 0
0.1 0.05 0
0.1 0 0
0.15 0 0
0.1 0.05 0
0.15 0.05 0
0.15 0 0
0.2 0 0
0.15 0.05 0
0.2 0.05 0
0.2 0 0
0.25 0 0
0.2 0.05 0
0.25 0.05 0
0.25 0 0
0.3 0 0
0.25 0.05 0
0.3 0.05 0
0.3 0 0
0.35 0 0
0.3 0.05 0
0.35 0.05 0
0.35 0 0
0.4 0 0
0.35 0.05 0
0.4 0.05 0
0.4 0 0
0.45 0 0
0.4 0.05 0
0.45 0.05 0
0.45 0 0
0.5 0 0
0.45 0.05 0
0.5 0.05 0
0.5 0 0
0.55 0 0
0.5 0.05 0
0.55 0.05 0
0.55 0 0
0.6 0 0
0.55 0.05 0
0.6 0.05 0
0.6 0 0
0.65 0 0
0.6 0.05 0
0.65 0.05 0
0.65 0 0
0.7 0 0
0.65 0.05 0
0.7 0.05 0
0.7 0 0
0.75 0 0
0.7 0.05 0
0.75 0.05 0
0.75 0 0
0.8 0 0
0.75 0.05 0
0.8 0.05 0
0.8 0 0
0.85 0 0
0.8 0.05 0
0.85 0.05 0
0.85 0 0
0.9 0 0
0.85 0.05 0
0.9 0.05 0
0.9 0 0
0.95 0 0
0.9 0.05 0
0.95 0.05 0
0.95 0 0
1 0 0
0.95 0.05 0
1 0.05 0
1 0 0
1.05 0 0
1 0.05 0
1.05 0.05 0
1.05 0 0
1.1 0 0
1.05 0.05 0
1.1 0.05 0
1.1 0 0
1.15 0 0
1.1 0.05 0
1.15 0.05 0
1.15 0 0
1.2 0 0
1.15 0.05 0
1.2 0.05 0
1.2 0 0
1.25 0 0
1.2 0.05 0
1.25 0.05 0
1.25 0 0
1.3 0 0
1.25 0.05 0
1.3 0.05 0
0.1 0.05 0
0.15 0.05 0
0.1 0.1 0
0.15 0.1 0
0.15 0.05 0
0.2 0.05 0
0.15 0.1 0
0.2 0.1 0
0.2 0.05 0
0.25 0.05 0
0.2 0.1 0
0.25 0.1 0
0.25 0.05 0
0.3 0.05 0
0.25 0.1 0
0.3 0.1 0
0.2 0.1 0
0.25 0.1 0
0.2 0.15 0
0.25 0.15 0
0.25 0.1 0
0.3 0.1 0
0.25 0.15 0
0.3 0.15 0
0.65 0.25 0
0.7 0.25 0
0.65 0.3 0
0.7 0.3 0
0.7 0.25 0
0.75 0.25 0
0.7 0.3 0
0.75 0.3 0
0.75 0.25 0
0.8 0.25 0
0.75 0.3 0
0.8 0.3 0
0.8 0.25 0
0.85 0.25 0
0.8 0.3 0
0.85 0.3 0
0.85 0.25 0
0.9 0.25 0
0.85 0.3 0
0.9 0.3 0
0.9 0.25 0
0.95 0.25 0
0.9 0.3 0
0.95 0.3 0
1.05 0.25 0
1.1 0.25 0
1.05 0.3 0
1.1 0.3 0
1.1 0.25 0
1.15 0.25 0
1.1 0.3 0
1.15 0.3 0
1.15 0.25 0
1.2 0.25 0
1.15 0.3 0
1.2 0.3 0
1.2 0.25 0
1.25 0.25 0
1.2 0.3 0
1.25 0.3 0
1.25 0.25 0
1.3 0.25 0
1.25 0.3 0
1.3 0.3 0
1.3 0.25 0
1.35 0.25 0
1.3 0.3 0
1.35 0.3 0
1.75 0.25 0
1.8 0.25 0
1.75 0.3 0
1.8 0.3 0
1.8 0.25 0
1.85 0.25 0
1.8 0.3 0
1.85 0.3 0
1.85 0.25 0
1.9 0.25 0
1.85 0.3 0
1.9 0.3 0
1.9 0.25 0
1.95 0.25 0
1.9 0.3 0
1.95 0.3 0
0.15 0.3 0
0.2 0.3 0
0.15 0.35 0
0.2 0.35 0
0.2 0.3 0
0.25 0.3 0
0.2 0.35 0
0.25 0.35 0
0.25 0.3 0
0.3 0.3 0
0.25 0.35 0
0.3 0.35 0
0.3 0.3 0
0.35 0.3 0
0.3 0.35 0
0.35 0.35 0
0.35 0.3 0
0.4 0.3 0
0.35 0.35 0
0.4 0.35 0
0.4 0.3 0
0.45 0.3 0
0.4 0.35 0
0.45 0.35 0
0.45 0.3 0
0.5 0.3 0
0.45 0.35 0
0.5 0.35 0
0.5 0.3 0
0.55 0.3 0
0.5 0.35 0
0.55 0.35 0
1.05 0.3 0
1.1 0.3 0
1.05 0.35 0
1.1 0.35 0
0.85 0.45 0
0.9 0.45 0
0.85 0.5 0
0.9 0.5 0
0.9 0.45 0
0.95 0.45 0
0.9 0.5 0
0.95 0.5 0
1.9 0.45 0
1.95 0.45 0
1.9 0.5 0
1.95 0.5 0
1.95 0.45 0
2 0.45 0
1.95 0.5 0
2 0.5 0
0.85 0.5 0
0.9 0.5 0
0.85 0.55 0
0.9 0.55 0
0.9 0.5 0
0.95 0.5 0
0.9 0.55 0
0.95 0.55 0
1.9 0.5 0
1.95 0.5 0
1.9 0.55 0
1.95 0.55 0
1.95 0.5 0
2 0.5 0
1.95 0.55 0
2 0.55 0
0.2 0.85 0
0.25 0.85 0
0.2 0.9 0
0.25 0.9 0
0.25 0.85 0
0.3 0.85 0
0.25 0.9 0
0.3 0.9 0
0.1 0.9 0
0.15 0.9 0
0.1 0.95 0
0.15 0.95 0
0.15 0.9 0
0.2 0.9 0
0.15 0.95 0
0.2 0.95 0
0.2 0.9 0
0.25 0.9 0
0.2 0.95 0
0.25 0.95 0
0.25 0.9 0
0.3 0.9 0
0.25 0.95 0
0.3 0.95 0
0 0.95 0
0.05 0.95 0
0 1 0
0.05 1 0
0.05 0.95 0
0.1 0.95 0
0.05 1 0
0.1 1 0
0.1 0.95 0
0.15 0.95 0
0.1 1 0
0.15 1 0
0.15 0.95 0
0.2 0.95 0
0.15 1 0
0.2 1 0
0.2 0.95 0
0.25 0.95 0
0.2 1 0
0.25 1 0
0.25 0.95 0
0.3 0.95 0
0.25 1 0
0.3 1 0
0.3 0.95 0
0.35 0.95 0
0.3 1 0
0.35 1 0
0.35 0.95 0
0.4 0.95 0
0.35 1 0
0.4 1 0
0.4 0.95 0
0.45 0.95 0
0.4 1 0
0.45 1 0
0.45 0.95 0
0.5 0.95 0
0.45 1 0
0.5 1 0
0.5 0.95 0
0.55 0.95 0
0.5 1 0
0.55 1 0
0.55 0.95 0
0.6 0.95 0
0.55 1 0
0.6 1 0
0.6 0.95 0
0.65 0.95 0
0.6 1 0
0.65 1 0
0.65 0.95 0
0.7 0.95 0
0.65 1 0
0.7 1 0
0.7 0.95 0
0.75 0.95 0
0.7 1 0
0.75 1 0
0.75 0.95 0
0.8 0.95 0
0.75 1 0
0.8 1 0
0.8 0.95 0
0.85 0.95 0
0.8 1 0
0.85 1 0
0.85 0.95 0
0.9 0.95 0
0.85 1 0
0.9 1 0
0.9 0.95 0
0.95 0.95 0
0.9 1 0
0.95 1 0
0.95 0.95 0
1 0.95 0
0.95 1 0
1 1 0
1 0.95 0
1.05 0.95 0
1 1 0
1.05 1 0
1.05 0.95 0
1.1 0.95 0
1.05 1 0
1.1 1 0
1.1 0.95 0
1.15 0.95 0
1.1 1 0
1.15 1 0
1.15 0.95 0
1.2 0.95 0
1.15 1 0
1.2 1 0
1.2 0.95 0
1.25 0.95 0
1.2 1 0
1.25 1 0
1.25 0.95 0
1.3 0.95 0
1.25 1 0
1.3 1 0
1.3 0 0
1.325 0 0
1.3 0.025 0
1.325 0.025 0
1.325 0 0
1.35 0 0
1.325 0.025 0
1.35 0.025 0
1.3 0.025 0
1.325 0.025 0
1.3 0.05 0
1.325 0.05 0
1.325 0.025 0
1.35 0.025 0
1.325 0.05 0
1.35 0.05 0
1.35 0 0
1.375 0 0
1.35 0.025 0
1.375 0.025 0
1.375 0 0
1.4 0 0
1.375 0.025 0
1.4 0.025 0
1.35 0.025 0
1.375 0.025 0
1.35 0.05 0
1.375 0.05 0
1.375 0.025 0
1.4 0.025 0
1.375 0.05 0
1.4 0.05 0
1.4 0 0
1.425 0 0
1.4 0.025 0
1.425 0.025 0
1.425 0 0
1.45 0 0
1.425 0.025 0
1.45 0.025 0
1.4 0.025 0
1.425 0.025 0
1.4 0.05 0
1.425 0.05 0
1.425 0.025 0
1.45 0.025 0
1.425 0.05 0
1.45 0.05 0
1.45 0 0
1.475 0 0
1.45 0.025 0
1.475 0.025 0
1.475 0 0
1.5 0 0
1.475 0.025 0
1.5 0.025 0
1.45 0.025 0
1.475 0.025 0
1.45 0.05 0
1.475 0.05 0
1.475 0.025 0
1.5 0.025 0
1.475 0.05 0
1.5 0.05 0
1.5 0 0
1.525 0 0
1.5 0.025 0
1.525 0.025 0
1.525 0 0
1.55 0 0
1.525 0.025 0
1.55 0.025 0
1.5 0.025 0
1.525 0.025 0
1.5 0.05 0
1.525 0.05 0
1.525 0.025 0
1.55 0.025 0
1.525 0.05 0
1.55 0.05 0
1.55 0 0
1.575 0 0
1.55 0.025 0
1.575 0.025 0
1.575 0 0
1.6 0 0
1.575 0.025 0
1.6 0.025 0
1.55 0.025 0
1.575 0.025 0
1.55 0.05 0
1.575 0.05 0
1.575 0.025 0
1.6 0.025 0
1.575 0.05 0
1.6 0.05 0
1.6 0 0
1.625 0 0
1.6 0.025 0
1.625 0.025 0
1.625 0 0
1.65 0 0
1.625 0.025 0
1.65 0.025 0
1.6 0.025 0
1.625 0.025 0
1.6 0.05 0
1.625 0.05 0
1.625 0.025 0
1.65 0.025 0
1.625 0.05 0
1.65 0.05 0
1.65 0 0
1.675 0 0
1.65 0.025 0
1.675 0.025 0
1.675 0 0
1.7 0 0
1.675 0.025 0
1.7 0.025 0
1.65 0.025 0
1.675 0.025 0
1.65 0.05 0
1.675 0.05 0
1.675 0.025 0
1.7 0.025 0
1.675 0.05 0
1.7 0.05 0
1.7 0 0
1.725 0 0
1.7 0.025 0
1.725 0.025 0
1.725 0 0
1.75 0 0
1.725 0.025 0
1.75 0.025 0
1.7 0.025 0
1.725 0.025 0
1.7 0.05 0
1.725 0.05 0
1.725 0.025 0
1.75 0.025 0
1.725 0.05 0
1.75 0.05 0
1.75 0 0
1.775 0 0
1.75 0.025 0
1.775 0.025 0
1.775 0 0
1.8 0 0
1.775 0.025 0
1.8 0.025 0
1.75 0.025 0
1.775 0.025 0
1.75 0.05 0
1.775 0.05 0
1.775 0.025 0
1.8 0.025 0
1.775 0.05 0
1.8 0.05 0
1.8 0 0
1.825 0 0
1.8 0.025 0
1.825 0.025 0
1.825 0 0
1.85 0 0
1.825 0.025 0
1.85 0.025 0
1.8 0.025 0
1.825 0.025 0
1.8 0.05 0
1.825 0.05 0
1.825 0.025 0
1.85 0.025 0
1.825 0.05 0
1.85 0.05 0
1.85 0 0
1.875 0 0
1.85 0.025 0
1.875 0.025 0
1.875 0 0
1.9 0 0
1.875 0.025 0
1.9 0.025 0
1.85 0.025 0
1.875 0.025 0
1.85 0.05 0
1.875 0.05 0
1.875 0.025 0
1.9 0.025 0
1.875 0.05 0
1.9 0.05 0
1.9 0 0
1.925 0 0
1.9 0.025 0
1.925 0.025 0
1.925 0 0
1.95 0 0
1.925 0.025 0
1.95 0.025 0
1.9 0.025 0
1.925 0.025 0
1.9 0.05 0
1.925 0.05 0
1.925 0.025 0
1.95 0.025 0
1.925 0.05 0
1.95 0.05 0
1.95 0 0
1.975 0 0
1.95 0.025 0
1.975 0.025 0
1.975 0 0
2 0 0
1.975 0.025 0
2 0.025 0
1.95 0.025 0
1.975 0.025 0
1.95 0.05 0
1.975 0.05 0
1.975 0.025 0
2 0.025 0
1.975 0.05 0
2 0.05 0
0 0.05 0
0.025 0.05 0
0 0.075 0
0.025 0.075 0
0.025 0.05 0
0.05 0.05 0
0.025 0.075 0
0.05 0.075 0
0 0.075 0
0.025 0.075 0
0 0.1 0
0.025 0.1 0
0.025 0.075 0
0.05 0.075 0
0.025 0.1 0
0.05 0.1 0
0.05 0.05 0
0.075 0.05 0
0.05 0.075 0
0.075 0.075 0
0.075 0.05 0
0.1 0.05 0
0.075 0.075 0
0.1 0.075 0
0.05 0.075 0
0.075 0.075 0
0.05 0.1 0
0.075 0.1 0
0.075 0.075 0
0.1 0.075 0
0.075 0.1 0
0.1 0.1 0
0.3 0.05 0
0.325 0.05 0
0.3 0.075 0
0.325 0.075 0
0.325 0.05 0
0.35 0.05 0
0.325 0.075 0
0.35 0.075 0
0.3 0.075 0
0.325 0.075 0
0.3 0.1 0
0.325 0.1 0
0.325 0.075 0
0.35 0.075 0
0.325 0.1 0
0.35 0.1 0
0.35 0.05 0
0.375 0.05 0
0.35 0.075 0
0.375 0.075 0
0.375 0.05 0
0.4 0.05 0
0.375 0.075 0
0.4 0.075 0
0.35 0.075 0
0.375 0.075 0
0.35 0.1 0
0.375 0.1 0
0.375 0.075 0
0.4 0.075 0
0.375 0.1 0
0.4 0.1 0
0.4 0.05 0
0.425 0.05 0
0.4 0.075 0
0.425 0.075 0
0.425 0.05 0
0.45 0.05 0
0.425 0.075 0
0.45 0.075 0
0.4 0.075 0
0.425 0.075 0
0.4 0.1 0
0.425 0.1 0
0.425 0.075 0
0.45 0.075 0
0.425 0.1 0
0.45 0.1 0
0.45 0.05 0
0.475 0.05 0
0.45 0.075 0
0.475 0.075 0
0.475 0.05 0
0.5 0.05 0
0.475 0.075 0
0.5 0.075 0
0.45 0.075 0
0.475 0.075 0
0.45 0.1 0
0.475 0.1 0
0.475 0.075 0
0.5 0.075 0
0.475 0.1 0
0.5 0.1 0
0.5 0.05 0
0.525 0.05 0
0.5 0.075 0
0.525 0.075 0
0.525 0.05 0
0.55 0.05 0
0.525 0.075 0
0.55 0.075 0
0.5 0.075 0
0.525 0.075 0
0.5 0.1 0
0.525 0.1 0
0.525 0.075 0
0.55 0.075 0
0.525 0.1 0
0.55 0.1 0
0.55 0.05 0
0.575 0.05 0
0.55 0.075 0
0.575 0.075 0
0.575 0.05 0
0.6 0.05 0
0.575 0.075 0
0.6 0.075 0
0.55 0.075 0
0.575 0.075 0
0.55 0.1 0
0.575 0.1 0
0.575 0.075 0
0.6 0.075 0
0.575 0.1 0
0.6 0.1 0
0.6 0.05 0
0.625 0.05 0
0.6 0.075 0
0.625 0.075 0
0.625 0.05 0
0.65 0.05 0
0.625 0.075 0
0.65 0.075 0
0.6 0.075 0
0.625 0.075 0
0.6 0.1 0
0.625 0.1 0
0.625 0.075 0
0.65 0.075 0
0.625 0.1 0
0.65 0.1 0
0.65 0.05 0
0.675 0.05 0
0.65 0.075 0
0.675 0.075 0
0.675 0.05 0
0.7 0.05 0
0.675 0.075 0
0.7 0.075 0
0.65 0.075 0
0.675 0.075 0
0.65 0.1 0
0.675 0.1 0
0.675 0.075 0
0.7 0.075 0
0.675 0.1 0
0.7 0.1 0
0.7 0.05 0
0.725 0.05 0
0.7 0.075 0
0.725 0.075 0
0.725 0.05 0
0.75 0.05 0
0.725 0.075 0
0.75 0.075 0
0.7 0.075 0
0.725 0.075 0
0.7 0.1 0
0.725 0.1 0
0.725 0.075 0
0.75 0.075 0
0.725 0.1 0
0.75 0.1 0
0.75 0.05 0
0.775 0.05 0
0.75 0.075 0
0.775 0.075 0
0.775 0.05 0
0.8 0.05 0
0.775 0.075 0
0.8 0.075 0
0.75 0.075 0
0.775 0.075 0
0.75 0.1 0
0.775 0.1 0
0.775 0.075 0
0.8 0.075 0
0.775 0.1 0
0.8 0.1 0
0.8 0.05 0
0.825 0.05 0
0.8 0.075 0
0.825 0.075 0
0.825 0.05 0
0.85 0.05 0
0.825 0.075 0
0.85 0.075 0
0.8 0.075 0
0.825 0.075 0
0.8 0.1 0
0.825 0.1 0
0.825 0.075 0
0.85 0.075 0
0.825 0.1 0
0.85 0.1 0
0.85 0.05 0
0.875 0.05 0
0.85 0.075 0
0.875 0.075 0
0.875 0.05 0
0.9 0.05 0
0.875 0.075 0
0.9 0.075 0
0.85 0.075 0
0.875 0.075 0
0.85 0.1 0
0.875 0.1 0
0.875 0.075 0
0.9 0.075 0
0.875 0.1 0
0.9 0.1 0
0.9 0.05 0
0.925 0.05 0
0.9 0.075 0
0.925 0.075 0
0.925 0.05 0
0.95 0.05 0
0.925 0.075 0
0.95 0.075 0
0.9 0.075 0
0.925 0.075 0
0.9 0.1 0
0.925 0.1 0
0.925 0.075 0
0.95 0.075 0
0.925 0.1 0
0.95 0.1 0
0.95 0.05 0
0.975 0.05 0
0.95 0.075 0
0.975 0.075 0
0.975 0.05 0
1 0.05 0
0.975 0.075 0
1 0.075 0
0.95 0.075 0
0.975 0.075 0
0.95 0.1 0
0.975 0.1 0
[...]
POINT_DATA 11636
SCALARS Density double 1
LOOKUP_TABLE default
1 1 1 1 1 1 1 1 1 1 1 1 1 1 1 1 1 1 1 1 1 1 1 1 1 1 1 1 1 1 1 1 1 1 1 1 1 1 1 1 1 1 1 1 1 1 1 1 1 1 1 1 1 1 1 1 1 1 1 1 1 1 1 1 1 1 1 1 1 1 1 1 1 1 1 1 1 1 1 1 1 1 1 1 1 1 1 1 1 1 1 1 1 1 1 1 1 1 1 1 1 1 1 1 1 1 1 1 1 1 1 1 1 1 1 1 1 1 1 1 1 1 1 1 1 1 1 1 0.597709 0.597709 0.597709 0.597709 0.416781 0.416781 0.416781 0.416781 0.329929 0.329929 0.329929 0.329929 0.18081 0.18081 0.18081 0.18081 0.0739619 0.0739619 0.0739619 0.0739619 0.0373135 0.0373135 0.0373135 0.0373135 0.582982 0.582982 0.582982 0.582982 0.862919 0.862919 0.862919 0.862919 0.72078 0.72078 0.72078 0.72078 0.419418 0.419418 0.419418 0.419418 0.175463 0.175463 0.175463 0.175463 0.0538111 0.0538111 0.0538111 0.0538111 0.541075 0.541075 0.541075 0.541075 0.311237 0.311237 0.311237 0.311237 0.0720058 0.0720058 0.0720058 0.0720058 0.00205578 0.00205578 0.00205578 0.00205578 1e-05 1e-05 1e-05 1e-05 9.59833e-05 9.59833e-05 9.59833e-05 9.59833e-05 0.0315606 0.0315606 0.0315606 0.0315606 0.174064 0.174064 0.174064 0.174064 0.351834 0.351834 0.351834 0.351834 0.507025 0.507025 0.507025 0.507025 0.657193 0.657193 0.657193 0.657193 0.843341 0.843341 0.843341 0.843341 0.830352 0.830352 0.830352 0.830352 1 1 1 1 1 1 1 1 1 1 1 1 1 1 1 1 1 1 1 1 1 1 1 1 1 1 1 1 1 1 1 1 1 1 1 1 1 1 1 1 1 1 1 1 1 1 1 1 1 1 1 1 1 1 1 1 1 1 1 1 1 1 1 1 1 1 1 1 1 1 1 1 1 1 1 1 1 1 1 1 1 1 1 1 1 1 1 1 1 1 1 1 1 1 1 1 1 1 1 1 1 1 1 1 1 1 1 1 1 1 1 1 1 1 1 1 1 1 1 1 1 1 1 1 1 1 1 1 1 1 1 1 1 1 1 1 1 1 1 1 1 1 1 1 1 1 1 1 1 1 1 1 1 1 1 1 1 1 1 1 1 1 1 1 0.875757 0.875757 0.875757 0.875757 1 1 1 1 0.90607 0.90607 0.90607 0.90607 0.633708 0.633708 0.633708 0.633708 0.38068 0.38068 0.38068 0.38068 0.723888 0.723888 0.723888 0.723888 0.532594 0.532594 0.532594 0.532594 0.129785 0.129785 0.129785 0.129785 0.000749378 0.000749378 0.000749378 0.000749378 0.343753 0.343753 0.343753 0.343753 0.197781 0.197781 0.197781 0.197781 0.000260791 0.000260791 0.000260791 0.000260791 1e-05 1e-05 1e-05 1e-05 0.074612 0.074612 0.074612 0.074612 0.0202733 0.0202733 0.0202733 0.0202733 1e-05 1e-05 1e-05 1e-05 1e-05 1e-05 1e-05 1e-05 0.00574043 0.00574043 0.00574043 0.00574043 1.02296e-05 1.02296e-05 1.02296e-05 1.02296e-05 1e-05 1e-05 1e-05 1e-05 1e-05 1e-05 1e-05 1e-05 1.00649e-05 1.00649e-05 1.00649e-05 1.00649e-05 1e-05 1e-05 1e-05 1e-05 1e-05 1e-05 1e-05 1e-05 1e-05 1e-05 1e-05 1e-05 1e-05 1e-05 1e-05 1e-05 1e-05 1e-05 1e-05 1e-05 1e-05 1e-05 1e-05 1e-05 1e-05 1e-05 1e-05 1e-05 1e-05 1e-05 1e-05 1e-05 1e-05 1e-05 1e-05 1e-05 1e-05 1e-05 1e-05 1e-05 1e-05 1e-05 1e-05 1e-05 1e-05 1e-05 1e-05 1e-05 1e-05 1e-05 1e-05 1e-05 1e-05 1e-05 1e-05 1e-05 1e-05 1e-05 1e-05 1e-05 1e-05 1e-05 1e-05 1e-05 1e-05 1e-05 1e-05 1e-05 1e-05 1e-05 1e-05 1e-05 1e-05 1e-05 1e-05 1e-05 1e-05 1e-05 1e-05 1e-05 1e-05 1e-05 1e-05 1e-05 1e-05 1e-05 1e-05 1e-05 1e-05 1e-05 1e-05 1e-05 1e-05 1e-05 1e-05 1e-05 1e-05 1e-05 1e-05 1e-05 1e-05 1e-05 1e-05 1e-05 1e-05 1e-05 1e-05 1e-05 1e-05 1e-05 1e-05 1e-05 1e-05 1e-05 1e-05 1e-05 1e-05 1e-05 1e-05 1e-05 1e-05 1e-05 1e-05 1e-05 1e-05 1e-05 1e-05 1e-05 1e-05 1e-05 1e-05 1e-05 1 1 1 1 1 1 1 1 0.781395 0.781395 0.781395 0.781395 0.834731 0.834731 0.834731 0.834731 1 1 1 1 1 1 1 1 0.953264 0.953264 0.953264 0.953264 1 1 1 1 1 1 1 1 1 1 1 1 1 1 1 1 0.986675 0.986675 0.986675 0.986675 1 1 1 1 1 1 1 1 0.952881 0.952881 0.952881 0.952881 0.906538 0.906538 0.906538 0.906538 1 1 1 1 1 1 1 1 0.822795 0.822795 0.822795 0.822795 0.786027 0.786027 0.786027 0.786027 1 1 1 1 1 1 1 1 0.776518 0.776518 0.776518 0.776518 0.770497 0.770497 0.770497 0.770497 1 1 1 1 1 1 1 1 0.764738 0.764738 0.764738 0.764738 0.761517 0.761517 0.761517 0.761517 1 1 1 1 1 1 1 1 0.759107 0.759107 0.759107 0.759107 0.758614 0.758614 0.758614 0.758614 1 1 1 1 1 1 1 1 0.759776 0.759776 0.759776 0.759776 0.761113 0.761113 0.761113 0.761113 1 1 1 1 1 1 1 1 0.763342 0.763342 0.763342 0.763342 0.765781 0.765781 0.765781 0.765781 1 1 1 1 1 1 1 1 0.769737 0.769737 0.769737 0.769737 0.773536 0.773536 0.773536 0.773536 1 1 1 1 1 1 1 1 0.779218 0.779218 0.779218 0.779218 0.784176 0.784176 0.784176 0.784176 1 1 1 1 1 1 1 1 0.791069 0.791069 0.791069 0.791069 0.796881 0.796881 0.796881 0.796881 1 1 1 1 1 1 1 1 0.804726 0.804726 0.804726 0.804726 0.811361 0.811361 0.811361 0.811361 1 1 1 1 1 1 1 1 0.820341 0.820341 0.820341 0.820341 0.82793 0.82793 0.82793 0.82793 1 1 1 1 1 1 1 1 0.838196 0.838196 0.838196 0.838196 0.844929 0.844929 0.844929 0.844929 1 1 1 1 1 1 1 1 0.851741 0.851741 0.851741 0.851741 0.857571 0.857571 0.857571 0.857571 1 1 1 1 1 1 1 1 0.865545 0.865545 0.865545 0.865545 0.876166 0.876166 0.876166 0.876166 1 1 1 1 1 1 1 1 0.89513 0.89513 0.89513 0.89513 0.911314 0.911314 0.911314 0.911314 1 1 1 1 1 1 1 1 0.933397 0.933397 0.933397 0.933397 0.952519 0.952519 0.952519 0.952519 1 1 1 1 1 1 1 1 0.978936 0.978936 0.978936 0.978936 0.991699 0.991699 0.991699 0.991699 1 1 1 1 1 1 1 1 0.997653 0.997653 0.997653 0.997653 1 1 1 1 1 1 1 1 0.973438 0.973438 0.973438 0.973438 1 1 1 1 1 1 1 1 0.90607 0.90607 0.90607 0.90607 0.851974 0.851974 0.851974 0.851974 1 1 1 1 1 1 1 1 0.782144 0.782144 0.782144 0.782144 0.583337 0.583337 0.583337 0.583337 1 1 1 1 0.82878 0.82878 0.82878 0.82878 0.251111 0.251111 0.251111 0.251111 0.059575 0.059575 0.059575 0.059575 0.49669 0.49669 0.49669 0.49669 0.287781 0.287781 0.287781 0.287781 0.0202739 0.0202739 0.0202739 0.0202739 1.06751e-05 1.06751e-05 1.06751e-05 1.06751e-05 0.204283 0.204283 0.204283 0.204283 0.129948 0.129948 0.129948 0.129948 1.02296e-05 1.02296e-05 1.02296e-05 1.02296e-05 1e-05 1e-05 1e-05 1e-05 0.0370073 0.0370073 0.0370073 0.0370073 0.000284112 0.000284112 0.000284112 0.000284112 1e-05 1e-05 1e-05 1e-05 1e-05 1e-05 1e-05 1e-05 8.75157e-05 8.75157e-05 8.75157e-05 8.75157e-05 1e-05 1e-05 1e-05 1e-05 1e-05 1e-05 1e-05 1e-05 1e-05 1e-05 1e-05 1e-05 1e-05 1e-05 1e-05 1e-05 1e-05 1e-05 1e-05 1e-05 1e-05 1e-05 1e-05 1e-05 1e-05 1e-05 1e-05 1e-05 1e-05 1e-05 1e-05 1e-05 1e-05 1e-05 1e-05 1e-05 1e-05 1e-05 1e-05 1e-05 1e-05 1e-05 1e-05 1e-05 1e-05 1e-05 1e-05 1e-05 1e-05 1e-05 1e-05 1e-05 1e-05 1e-05 1e-05 1e-05 1e-05 1e-05 1e-05 1e-05 1e-05 1e-05 1e-05 1e-05 1e-05 1e-05 1e-05 1e-05 1e-05 1e-05 1e-05 1e-05 1e-05 1e-05 1e-05 1e-05 1e-05 1e-05 1e-05 1e-05 1e-05 1e-05 1e-05 1e-05 1e-05 1e-05 1e-05 1e-05 1e-05 1e-05 1e-05 1e-05 1e-05 1e-05 1e-05 1e-05 1e-05 1e-05 1e-05 1e-05 1e-05 1e-05 1e-05 1e-05 1e-05 1e-05 1e-05 1e-05 1e-05 1e-05 1e-05 1e-05 1e-05 1e-05 1e-05 1e-05 0.355514 0.355514 0.355514 0.355514 0.514183 0.514183 0.514183 0.514183 0.102235 0.102235 0.102235 0.102235 0.268551 0.268551 0.268551 0.268551 0.834731 0.834731 0.834731 0.834731 1 1 1 1 0.589099 0.589099 0.589099 0.589099 0.760264 0.760264 0.760264 0.760264 1 1 1 1 1 1 1 1 0.775219 0.775219 0.775219 0.775219 0.829368 0.829368 0.829368 0.829368 1 1 1 1 1 1 1 1 0.951747 0.951747 0.951747 0.951747 1 1 1 1 1 1 1 1 0.952881 0.952881 0.952881 0.952881 1 1 1 1 0.952881 0.952881 0.952881 0.952881 0.861491 0.861491 0.861491 0.861491 0.697612 0.697612 0.697612 0.697612 0.861491 0.861491 0.861491 0.861491 0.697612 0.697612 0.697612 0.697612 0.471148 0.471148 0.471148 0.471148 0.341127 0.341127 0.341127 0.341127 0.471148 0.471148 0.471148 0.471148 0.31555 0.31555 0.31555 0.31555 0.31541 0.31541 0.31541 0.31541 0.294122 0.294122 0.294122 0.294122 0.224963 0.224963 0.224963 0.224963 0.155749 0.155749 0.155749 0.155749 0.278548 0.278548 0.278548 0.278548 0.267157 0.267157 0.267157 0.267157 0.0834951 0.0834951 0.0834951 0.0834951 0.0453858 0.0453858 0.0453858 0.0453858 0.260638 0.260638 0.260638 0.260638 0.258897 0.258897 0.258897 0.258897 0.0277827 0.0277827 0.0277827 0.0277827 0.0200514 0.0200514 0.0200514 0.0200514 0.262038 0.262038 0.262038 0.262038 0.266766 0.266766 0.266766 0.266766 0.0190855 0.0190855 0.0190855 0.0190855 0.022151 0.022151 0.022151 0.022151 0.272794 0.272794 0.272794 0.272794 0.281418 0.281418 0.281418 0.281418 0.0280712 0.0280712 0.0280712 0.0280712 0.036682 0.036682 0.036682 0.036682 0.292116 0.292116 0.292116 0.292116 0.305553 0.305553 0.305553 0.305553 0.0474552 0.0474552 0.0474552 0.0474552 0.0608189 0.0608189 0.0608189 0.0608189 0.320917 0.320917 0.320917 0.320917 0.33845 0.33845 0.33845 0.33845 0.0759214 0.0759214 0.0759214 0.0759214 0.0933517 0.0933517 0.0933517 0.0933517 0.357091 0.357091 0.357091 0.357091 0.377642 0.377642 0.377642 0.377642 0.111995 0.111995 0.111995 0.111995 0.13275 0.13275 0.13275 0.13275 0.398859 0.398859 0.398859 0.398859 0.422319 0.422319 0.422319 0.422319 0.154484 0.154484 0.154484 0.154484 0.178658 0.178658 0.178658 0.178658 0.446605 0.446605 0.446605 0.446605 0.47344 0.47344 0.47344 0.47344 0.204235 0.204235 0.204235 0.204235 0.232621 0.232621 0.232621 0.232621 0.501203 0.501203 0.501203 0.501203 0.525014 0.525014 0.525014 0.525014 0.263022 0.263022 0.263022 0.263022 0.29323 0.29323 0.29323 0.29323 0.543434 0.543434 0.543434 0.543434 0.564049 0.564049 0.564049 0.564049 0.325235 0.325235 0.325235 0.325235 0.364003 0.364003 0.364003 0.364003 0.585615 0.585615 0.585615 0.585615 0.623174 0.623174 0.623174 0.623174 0.418021 0.418021 0.418021 0.418021 0.478813 0.478813 0.478813 0.478813 0.674457 0.674457 0.674457 0.674457 0.731688 0.731688 0.731688 0.731688 0.556566 0.556566 0.556566 0.556566 0.635477 0.635477 0.635477 0.635477 0.791406 0.791406 0.791406 0.791406 0.859028 0.859028 0.859028 0.859028 0.723713 0.723713 0.723713 0.723713 0.812208 0.812208 0.812208 0.812208 0.930466 0.930466 0.930466 0.930466 0.975599 0.975599 0.975599 0.975599 0.908065 0.908065 0.908065 0.908065 0.948572 0.948572 0.948572 0.948572 0.991699 0.991699 0.991699 0.991699 1 1 1 1 0.928521 0.928521 0.928521 0.928521 0.90445 0.90445 0.90445 0.90445 1 1 1 1 1 1 1 1 0.858499 0.858499 0.858499 0.858499 0.875568 0.875568 0.875568 0.875568 1 1 1 1 1 1 1 1 0.964812 0.964812 0.964812 0.964812 1 1 1 1 1 1 1 1 0.951581 0.951581 0.951581 0.951581 1 1 1 1 1 1 1 1 0.82878 0.82878 0.82878 0.82878 0.713008 0.713008 0.713008 0.713008 1 1 1 1 0.938377 0.938377 0.938377 0.938377 0.578954 0.578954 0.578954 0.578954 0.382015 0.382015 0.382015 0.382015 0.818856 0.818856 0.818856 0.818856 0.627647 0.627647 0.627647 0.627647 0.130676 0.130676 0.130676 0.130676 0.000815767 0.000815767 0.000815767 0.000815767 0.376308 0.376308 0.376308 0.376308 0.203382 0.203382 0.203382 0.203382 0.000284112 0.000284112 0.000284112 0.000284112 1e-05 1e-05 1e-05 1e-05 0.0936258 0.0936258 0.0936258 0.0936258 0.0392025 0.0392025 0.0392025 0.0392025 1e-05 1e-05 1e-05 1e-05 1e-05 1e-05 1e-05 1e-05 0.0110933 0.0110933 0.0110933 0.0110933 1.01542e-05 1.01542e-05 1.01542e-05 1.01542e-05 1e-05 1e-05 1e-05 1e-05 1e-05 1e-05 1e-05 1e-05 1.00436e-05 1.00436e-05 1.00436e-05 1.00436e-05 1e-05 1e-05 1e-05 1e-05 1e-05 1e-05 1e-05 1e-05 1e-05 1e-05 1e-05 1e-05 1e-05 1e-05 1e-05 1e-05 1e-05 1e-05 1e-05 1e-05 1e-05 1e-05 1e-05 1e-05 1e-05 1e-05 1e-05 1e-05 1e-05 1e-05 1e-05 1e-05 1e-05 1e-05 1e-05 1e-05 1e-05 1e-05 1e-05 1e-05 1e-05 1e-05 1e-05 1e-05 1e-05 1e-05 1e-05 1e-05 1e-05 1e-05 1e-05 1e-05 1e-05 1e-05 1e-05 1e-05 1e-05 1e-05 1e-05 1e-05 1e-05 1e-05 1e-05 1e-05 1e-05 1e-05 1e-05 1e-05 1e-05 1e-05 1e-05 1e-05 1e-05 1e-05 1e-05 1e-05 1e-05 1e-05 1e-05 1e-05 1e-05 1e-05 1e-05 1e-05 0.0346841 0.0346841 0.0346841 0.0346841 0.0803734 0.0803734 0.0803734 0.0803734 1e-05 1e-05 1e-05 1e-05 1e-05 1e-05 1e-05 1e-05 0.198906 0.198906 0.198906 0.198906 0.266493 0.266493 0.266493 0.266493 1e-05 1e-05 1e-05 1e-05 0.020861 0.020861 0.020861 0.020861 0.306935 0.306935 0.306935 0.306935 0.498418 0.498418 0.498418 0.498418 0.0613027 0.0613027 0.0613027 0.0613027 0.252788 0.252788 0.252788 0.252788 0.829368 0.829368 0.829368 0.829368 1 1 1 1 0.583745 0.583745 0.583745 0.583745 0.768328 0.768328 0.768328 0.768328 1 1 1 1 1 1 1 1 0.803703 0.803703 0.803703 0.803703 0.85785 0.85785 0.85785 0.85785 1 1 1 1 1 1 1 1 0.959801 0.959801 0.959801 0.959801 1 1 1 1 1 1 1 1 0.986675 0.986675 0.986675 0.986675 1 1 1 1 1 1 1 1 0.952881 0.952881 0.952881 0.952881 0.906538 0.906538 0.906538 0.906538 1 1 1 1 1 1 1 1 0.822795 0.822795 0.822795 0.822795 0.69558 0.69558 0.69558 0.69558 1 1 1 1 0.909553 0.909553 0.909553 0.909553 0.510643 0.510643 0.510643 0.510643 0.335148 0.335148 0.335148 0.335148 0.734126 0.734126 0.734126 0.734126 0.56465 0.56465 0.56465 0.56465 0.17611 0.17611 0.17611 0.17611 0.0784057 0.0784057 0.0784057 0.0784057 0.411371 0.411371 0.411371 0.411371 0.286377 0.286377 0.286377 0.286377 0.0460203 0.0460203 0.0460203 0.0460203 0.0243466 0.0243466 0.0243466 0.0243466 0.179019 0.179019 0.179019 0.179019 0.104833 0.104833 0.104833 0.104833 0.0144007 0.0144007 0.0144007 0.0144007 0.00986037 0.00986037 0.00986037 0.00986037 0.0366777 0.0366777 0.0366777 0.0366777 0.00719296 0.00719296 0.00719296 0.00719296 0.0117976 0.0117976 0.0117976 0.0117976 0.0141904 0.0141904 0.0141904 0.0141904 0.00407569 0.00407569 0.00407569 0.00407569 0.00298468 0.00298468 0.00298468 0.00298468 0.0183492 0.0183492 0.0183492 0.0183492 0.021889 0.021889 0.021889 0.021889 0.00336232 0.00336232 0.00336232 0.00336232 0.00322672 0.00322672 0.00322672 0.00322672 0.0268633 0.0268633 0.0268633 0.0268633 0.0314596 0.0314596 0.0314596 0.0314596 0.00266031 0.00266031 0.00266031 0.00266031 0.00239831 0.00239831 0.00239831 0.00239831 0.0383582 0.0383582 0.0383582 0.0383582 0.0448926 0.0448926 0.0448926 0.0448926 0.00251612 0.00251612 0.00251612 0.00251612 0.00329058 0.00329058 0.00329058 0.00329058 0.0541355 0.0541355 0.0541355 0.0541355 0.0632917 0.0632917 0.0632917 0.0632917 0.00470556 0.00470556 0.00470556 0.00470556 0.0074314 0.0074314 0.0074314 0.0074314 0.0757663 0.0757663 0.0757663 0.0757663 0.0888355 0.0888355 0.0888355 0.0888355 0.0114251 0.0114251 0.0114251 0.0114251 0.0184943 0.0184943 0.0184943 0.0184943 0.106237 0.106237 0.106237 0.106237 0.135591 0.135591 0.135591 0.135591 0.0291597 0.0291597 0.0291597 0.0291597 0.0604799 0.0604799 0.0604799 0.0604799 0.179141 0.179141 0.179141 0.179141 0.249162 0.249162 0.249162 0.249162 0.115752 0.115752 0.115752 0.115752 0.199873 0.199873 0.199873 0.199873 0.344899 0.344899 0.344899 0.344899 0.437676 0.437676 0.437676 0.437676 0.319651 0.319651 0.319651 0.319651 0.437719 0.437719 0.437719 0.437719 0.528221 0.528221 0.528221 0.528221 0.621073 0.621073 0.621073 0.621073 0.568366 0.568366 0.568366 0.568366 0.677458 0.677458 0.677458 0.677458 0.720276 0.720276 0.720276 0.720276 0.813209 0.813209 0.813209 0.813209 0.777745 0.777745 0.777745 0.777745 0.852993 0.852993 0.852993 0.852993 0.905664 0.905664 0.905664 0.905664 0.902069 0.902069 0.902069 0.902069 0.899512 0.899512 0.899512 0.899512 0.848906 0.848906 0.848906 0.848906 0.810258 0.810258 0.810258 0.810258 0.698131 0.698131 0.698131 0.698131 0.683803 0.683803 0.683803 0.683803 0.529242 0.529242 0.529242 0.529242 0.573865 0.573865 0.573865 0.573865 0.634227 0.634227 0.634227 0.634227 0.370648 0.370648 0.370648 0.370648 0.414212 0.414212 0.414212 0.414212 0.875568 0.875568 0.875568 0.875568 1 1 1 1 0.647279 0.647279 0.647279 0.647279 0.78579 0.78579 0.78579 0.78579 1 1 1 1 1 1 1 1 0.829772 0.829772 0.829772 0.829772 0.880818 0.880818 0.880818 0.880818 1 1 1 1 0.982574 0.982574 0.982574 0.982574 0.966297 0.966297 0.966297 0.966297 1 1 1 1 0.938377 0.938377 0.938377 0.938377 0.884305 0.884305 0.884305 0.884305 1 1 1 1 1 1 1 1 0.791365 0.791365 0.791365 0.791365 0.602351 0.602351 0.602351 0.602351 1 1 1 1 0.847709 0.847709 0.847709 0.847709 0.306779 0.306779 0.306779 0.306779 0.115218 0.115218 0.115218 0.115218 0.552334 0.552334 0.552334 0.552334 0.352102 0.352102 0.352102 0.352102 0.0392029 0.0392029 0.0392029 0.0392029 1.04532e-05 1.04532e-05 1.04532e-05 1.04532e-05 0.253898 0.253898 0.253898 0.253898 0.160685 0.160685 0.160685 0.160685 1.01542e-05 1.01542e-05 1.01542e-05 1.01542e-05 1e-05 1e-05 1e-05 1e-05 0.0458634 0.0458634 0.0458634 0.0458634 0.000462605 0.000462605 0.000462605 0.000462605 1e-05 1e-05 1e-05 1e-05 1e-05 1e-05 1e-05 1e-05 0.000137992 0.000137992 0.000137992 0.000137992 1e-05 1e-05 1e-05 1e-05 1e-05 1e-05 1e-05 1e-05 1e-05 1e-05 1e-05 1e-05 1e-05 1e-05 1e-05 1e-05 1e-05 1e-05 1e-05 1e-05 1e-05 1e-05 1e-05 1e-05 1e-05 1e-05 1e-05 1e-05 1e-05 1e-05 1e-05 1e-05 1e-05 1e-05 1e-05 1e-05 1e-05 1e-05 1e-05 1e-05 1e-05 1e-05 1e-05 1e-05 1e-05 1e-05 1e-05 1e-05 1e-05 1e-05 1e-05 1e-05 1e-05 1e-05 1e-05 1e-05 1e-05 1e-05 1e-05 1e-05 1e-05 1e-05 1e-05 1e-05 1e-05 1e-05 1e-05 1e-05 1e-05 1e-05 1e-05 1e-05 1e-05 1e-05 1e-05 1e-05 1e-05 1e-05 1e-05 1e-05 1e-05 1e-05 1e-05 1e-05 1e-05 1e-05 1e-05 1e-05 0.00590643 0.00590643 0.00590643 0.00590643 1e-05 1e-05 1e-05 1e-05 1e-05 1e-05 1e-05 1e-05 0.020861 0.020861 0.020861 0.020861 0.0750198 0.0750198 0.0750198 0.0750198 1e-05 1e-05 1e-05 1e-05 1.95734e-05 1.95734e-05 1.95734e-05 1.95734e-05 0.197418 0.197418 0.197418 0.197418 0.295003 0.295003 0.295003 0.295003 3.81415e-05 3.81415e-05 3.81415e-05 3.81415e-05 0.0493709 0.0493709 0.0493709 0.0493709 0.390668 0.390668 0.390668 0.390668 0.582142 0.582142 0.582142 0.582142 0.145036 0.145036 0.145036 0.145036 0.336581 0.336581 0.336581 0.336581 0.85785 0.85785 0.85785 0.85785 1 1 1 1 0.612473 0.612473 0.612473 0.612473 0.780887 0.780887 0.780887 0.780887 1 1 1 1 1 1 1 1 0.847315 0.847315 0.847315 0.847315 0.901392 0.901392 0.901392 0.901392 1 1 1 1 1 1 1 1 0.972115 0.972115 0.972115 0.972115 1 1 1 1 1 1 1 1 0.974423 0.974423 0.974423 0.974423 1 1 1 1 1 1 1 1 0.909553 0.909553 0.909553 0.909553 0.861627 0.861627 0.861627 0.861627 1 1 1 1 1 1 1 1 0.804947 0.804947 0.804947 0.804947 0.670334 0.670334 0.670334 0.670334 1 1 1 1 0.892106 0.892106 0.892106 0.892106 0.449983 0.449983 0.449983 0.449983 0.256557 0.256557 0.256557 0.256557 0.682838 0.682838 0.682838 0.682838 0.495403 0.495403 0.495403 0.495403 0.0981751 0.0981751 0.0981751 0.0981751 0.0130322 0.0130322 0.0130322 0.0130322 0.341128 0.341128 0.341128 0.341128 0.22248 0.22248 0.22248 0.22248 0.00528345 0.00528345 0.00528345 0.00528345 0.00157482 0.00157482 0.00157482 0.00157482 0.101969 0.101969 0.101969 0.101969 0.0366928 0.0366928 0.0366928 0.0366928 0.00212275 0.00212275 0.00212275 0.00212275 0.00248914 0.00248914 0.00248914 0.00248914 0.0188116 0.0188116 0.0188116 0.0188116 0.00905257 0.00905257 0.00905257 0.00905257 0.00260796 0.00260796 0.00260796 0.00260796 0.0028586 0.0028586 0.0028586 0.0028586 0.00532656 0.00532656 0.00532656 0.00532656 0.00372409 0.00372409 0.00372409 0.00372409 0.00316484 0.00316484 0.00316484 0.00316484 0.00355117 0.00355117 0.00355117 0.00355117 0.00381468 0.00381468 0.00381468 0.00381468 0.00394856 0.00394856 0.00394856 0.00394856 0.00411623 0.00411623 0.00411623 0.00411623 0.00555072 0.00555072 0.00555072 0.00555072 0.00409584 0.00409584 0.00409584 0.00409584 0.00500286 0.00500286 0.00500286 0.00500286 0.00819346 0.00819346 0.00819346 0.00819346 0.0153614 0.0153614 0.0153614 0.0153614 0.00662631 0.00662631 0.00662631 0.00662631 0.0150299 0.0150299 0.0150299 0.0150299 0.0275459 0.0275459 0.0275459 0.0275459 0.0647056 0.0647056 0.0647056 0.0647056 0.0281846 0.0281846 0.0281846 0.0281846 0.0675175 0.0675175 0.0675175 0.0675175 0.128411 0.128411 0.128411 0.128411 0.217042 0.217042 0.217042 0.217042 0.137599 0.137599 0.137599 0.137599 0.225729 0.225729 0.225729 0.225729 0.336073 0.336073 0.336073 0.336073 0.486298 0.486298 0.486298 0.486298 0.35369 0.35369 0.35369 0.35369 0.532568 0.532568 0.532568 0.532568 0.672501 0.672501 0.672501 0.672501 0.808838 0.808838 0.808838 0.808838 0.737637 0.737637 0.737637 0.737637 0.882398 0.882398 0.882398 0.882398 0.900006 0.900006 0.900006 0.900006 0.925964 0.925964 0.925964 0.925964 0.960086 0.960086 0.960086 0.960086 0.955133 0.955133 0.955133 0.955133 0.897596 0.897596 0.897596 0.897596 0.771864 0.771864 0.771864 0.771864 0.864967 0.864967 0.864967 0.864967 0.700484 0.700484 0.700484 0.700484 0.553608 0.553608 0.553608 0.553608 0.379482 0.379482 0.379482 0.379482 0.466515 0.466515 0.466515 0.466515 0.287052 0.287052 0.287052 0.287052 0.240697 0.240697 0.240697 0.240697 0.198367 0.198367 0.198367 0.198367 0.170364 0.170364 0.170364 0.170364 0.0917366 0.0917366 0.0917366