# vtk DataFile Version 3.0
#This file was generated by the deal.II library on 2015/9/3 at 12: 1: 3
ASCII
DATASET UNSTRUCTURED_GRID

POINTS 11636 double
0 0 0
0.05 0 0
0 0.05 0
0.05 0.05 0
0.05 0 0
0.1 0 0
0.05 0.05 0
0.1 0.05 0
0.1 0 0
0.15 0 0
0.1 0.05 0
0.15 0.05 0
0.15 0 0
0.2 0 0
0.15 0.05 0
0.2 0.05 0
0.2 0 0
0.25 0 0
0.2 0.05 0
0.25 0.05 0
0.25 0 0
0.3 0 0
0.25 0.05 0
0.3 0.05 0
0.3 0 0
0.35 0 0
0.3 0.05 0
0.35 0.05 0
0.35 0 0
0.4 0 0
0.35 0.05 0
0.4 0.05 0
0.4 0 0
0.45 0 0
0.4 0.05 0
0.45 0.05 0
0.45 0 0
0.5 0 0
0.45 0.05 0
0.5 0.05 0
0.5 0 0
0.55 0 0
0.5 0.05 0
0.55 0.05 0
0.55 0 0
0.6 0 0
0.55 0.05 0
0.6 0.05 0
0.6 0 0
0.65 0 0
0.6 0.05 0
0.65 0.05 0
0.65 0 0
0.7 0 0
0.65 0.05 0
0.7 0.05 0
0.7 0 0
0.75 0 0
0.7 0.05 0
0.75 0.05 0
0.75 0 0
0.8 0 0
0.75 0.05 0
0.8 0.05 0
0.8 0 0
0.85 0 0
0.8 0.05 0
0.85 0.05 0
0.85 0 0
0.9 0 0
0.85 0.05 0
0.9 0.05 0
0.9 0 0
0.95 0 0
0.9 0.05 0
0.95 0.05 0
0.95 0 0
1 0 0
0.95 0.05 0
1 0.05 0
1 0 0
1.05 0 0
1 0.05 0
1.05 0.05 0
1.05 0 0
1.1 0 0
1.05 0.05 0
1.1 0.05 0
1.1 0 0
1.15 0 0
1.1 0.05 0
1.15 0.05 0
1.15 0 0
1.2 0 0
1.15 0.05 0
1.2 0.05 0
1.2 0 0
1.25 0 0
1.2 0.05 0
1.25 0.05 0
1.25 0 0
1.3 0 0
1.25 0.05 0
1.3 0.05 0
0.1 0.05 0
0.15 0.05 0
0.1 0.1 0
0.15 0.1 0
0.15 0.05 0
0.2 0.05 0
0.15 0.1 0
0.2 0.1 0
0.2 0.05 0
0.25 0.05 0
0.2 0.1 0
0.25 0.1 0
0.25 0.05 0
0.3 0.05 0
0.25 0.1 0
0.3 0.1 0
0.2 0.1 0
0.25 0.1 0
0.2 0.15 0
0.25 0.15 0
0.25 0.1 0
0.3 0.1 0
0.25 0.15 0
0.3 0.15 0
0.65 0.25 0
0.7 0.25 0
0.65 0.3 0
0.7 0.3 0
0.7 0.25 0
0.75 0.25 0
0.7 0.3 0
0.75 0.3 0
0.75 0.25 0
0.8 0.25 0
0.75 0.3 0
0.8 0.3 0
0.8 0.25 0
0.85 0.25 0
0.8 0.3 0
0.85 0.3 0
0.85 0.25 0
0.9 0.25 0
0.85 0.3 0
0.9 0.3 0
0.9 0.25 0
0.95 0.25 0
0.9 0.3 0
0.95 0.3 0
1.05 0.25 0
1.1 0.25 0
1.05 0.3 0
1.1 0.3 0
1.1 0.25 0
1.15 0.25 0
1.1 0.3 0
1.15 0.3 0
1.15 0.25 0
1.2 0.25 0
1.15 0.3 0
1.2 0.3 0
1.2 0.25 0
1.25 0.25 0
1.2 0.3 0
1.25 0.3 0
1.25 0.25 0
1.3 0.25 0
1.25 0.3 0
1.3 0.3 0
1.3 0.25 0
1.35 0.25 0
1.3 0.3 0
1.35 0.3 0
1.75 0.25 0
1.8 0.25 0
1.75 0.3 0
1.8 0.3 0
1.8 0.25 0
1.85 0.25 0
1.8 0.3 0
1.85 0.3 0
1.85 0.25 0
1.9 0.25 0
1.85 0.3 0
1.9 0.3 0
1.9 0.25 0
1.95 0.25 0
1.9 0.3 0
1.95 0.3 0
0.15 0.3 0
0.2 0.3 0
0.15 0.35 0
0.2 0.35 0
0.2 0.3 0
0.25 0.3 0
0.2 0.35 0
0.25 0.35 0
0.25 0.3 0
0.3 0.3 0
0.25 0.35 0
0.3 0.35 0
0.3 0.3 0
0.35 0.3 0
0.3 0.35 0
0.35 0.35 0
0.35 0.3 0
0.4 0.3 0
0.35 0.35 0
0.4 0.35 0
0.4 0.3 0
0.45 0.3 0
0.4 0.35 0
0.45 0.35 0
0.45 0.3 0
0.5 0.3 0
0.45 0.35 0
0.5 0.35 0
0.5 0.3 0
0.55 0.3 0
0.5 0.35 0
0.55 0.35 0
1.05 0.3 0
1.1 0.3 0
1.05 0.35 0
1.1 0.35 0
0.85 0.45 0
0.9 0.45 0
0.85 0.5 0
0.9 0.5 0
0.9 0.45 0
0.95 0.45 0
0.9 0.5 0
0.95 0.5 0
1.9 0.45 0
1.95 0.45 0
1.9 0.5 0
1.95 0.5 0
1.95 0.45 0
2 0.45 0
1.95 0.5 0
2 0.5 0
0.85 0.5 0
0.9 0.5 0
0.85 0.55 0
0.9 0.55 0
0.9 0.5 0
0.95 0.5 0
0.9 0.55 0
0.95 0.55 0
1.9 0.5 0
1.95 0.5 0
1.9 0.55 0
1.95 0.55 0
1.95 0.5 0
2 0.5 0
1.95 0.55 0
2 0.55 0
0.2 0.85 0
0.25 0.85 0
0.2 0.9 0
0.25 0.9 0
0.25 0.85 0
0.3 0.85 0
0.25 0.9 0
0.3 0.9 0
0.1 0.9 0
0.15 0.9 0
0.1 0.95 0
0.15 0.95 0
0.15 0.9 0
0.2 0.9 0
0.15 0.95 0
0.2 0.95 0
0.2 0.9 0
0.25 0.9 0
0.2 0.95 0
0.25 0.95 0
0.25 0.9 0
0.3 0.9 0
0.25 0.95 0
0.3 0.95 0
0 0.95 0
0.05 0.95 0
0 1 0
0.05 1 0
0.05 0.95 0
0.1 0.95 0
0.05 1 0
0.1 1 0
0.1 0.95 0
0.15 0.95 0
0.1 1 0
0.15 1 0
0.15 0.95 0
0.2 0.95 0
0.15 1 0
0.2 1 0
0.2 0.95 0
0.25 0.95 0
0.2 1 0
0.25 1 0
0.25 0.95 0
0.3 0.95 0
0.25 1 0
0.3 1 0
0.3 0.95 0
0.35 0.95 0
0.3 1 0
0.35 1 0
0.35 0.95 0
0.4 0.95 0
0.35 1 0
0.4 1 0
0.4 0.95 0
0.45 0.95 0
0.4 1 0
0.45 1 0
0.45 0.95 0
0.5 0.95 0
0.45 1 0
0.5 1 0
0.5 0.95 0
0.55 0.95 0
0.5 1 0
0.55 1 0
0.55 0.95 0
0.6 0.95 0
0.55 1 0
0.6 1 0
0.6 0.95 0
0.65 0.95 0
0.6 1 0
0.65 1 0
0.65 0.95 0
0.7 0.95 0
0.65 1 0
0.7 1 0
0.7 0.95 0
0.75 0.95 0
0.7 1 0
0.75 1 0
0.75 0.95 0
0.8 0.95 0
0.75 1 0
0.8 1 0
0.8 0.95 0
0.85 0.95 0
0.8 1 0
0.85 1 0
0.85 0.95 0
0.9 0.95 0
0.85 1 0
0.9 1 0
0.9 0.95 0
0.95 0.95 0
0.9 1 0
0.95 1 0
0.95 0.95 0
1 0.95 0
0.95 1 0
1 1 0
1 0.95 0
1.05 0.95 0
1 1 0
1.05 1 0
1.05 0.95 0
1.1 0.95 0
1.05 1 0
1.1 1 0
1.1 0.95 0
1.15 0.95 0
1.1 1 0
1.15 1 0
1.15 0.95 0
1.2 0.95 0
1.15 1 0
1.2 1 0
1.2 0.95 0
1.25 0.95 0
1.2 1 0
1.25 1 0
1.25 0.95 0
1.3 0.95 0
1.25 1 0
1.3 1 0
1.3 0 0
1.325 0 0
1.3 0.025 0
1.325 0.025 0
1.325 0 0
1.35 0 0
1.325 0.025 0
1.35 0.025 0
1.3 0.025 0
1.325 0.025 0
1.3 0.05 0
1.325 0.05 0
1.325 0.025 0
1.35 0.025 0
1.325 0.05 0
1.35 0.05 0
1.35 0 0
1.375 0 0
1.35 0.025 0
1.375 0.025 0
1.375 0 0
1.4 0 0
1.375 0.025 0
1.4 0.025 0
1.35 0.025 0
1.375 0.025 0
1.35 0.05 0
1.375 0.05 0
1.375 0.025 0
1.4 0.025 0
1.375 0.05 0
1.4 0.05 0
1.4 0 0
1.425 0 0
1.4 0.025 0
1.425 0.025 0
1.425 0 0
1.45 0 0
1.425 0.025 0
1.45 0.025 0
1.4 0.025 0
1.425 0.025 0
1.4 0.05 0
1.425 0.05 0
1.425 0.025 0
1.45 0.025 0
1.425 0.05 0
1.45 0.05 0
1.45 0 0
1.475 0 0
1.45 0.025 0
1.475 0.025 0
1.475 0 0
1.5 0 0
1.475 0.025 0
1.5 0.025 0
1.45 0.025 0
1.475 0.025 0
1.45 0.05 0
1.475 0.05 0
1.475 0.025 0
1.5 0.025 0
1.475 0.05 0
1.5 0.05 0
1.5 0 0
1.525 0 0
1.5 0.025 0
1.525 0.025 0
1.525 0 0
1.55 0 0
1.525 0.025 0
1.55 0.025 0
1.5 0.025 0
1.525 0.025 0
1.5 0.05 0
1.525 0.05 0
1.525 0.025 0
1.55 0.025 0
1.525 0.05 0
1.55 0.05 0
1.55 0 0
1.575 0 0
1.55 0.025 0
1.575 0.025 0
1.575 0 0
1.6 0 0
1.575 0.025 0
1.6 0.025 0
1.55 0.025 0
1.575 0.025 0
1.55 0.05 0
1.575 0.05 0
1.575 0.025 0
1.6 0.025 0
1.575 0.05 0
1.6 0.05 0
1.6 0 0
1.625 0 0
1.6 0.025 0
1.625 0.025 0
1.625 0 0
1.65 0 0
1.625 0.025 0
1.65 0.025 0
1.6 0.025 0
1.625 0.025 0
1.6 0.05 0
1.625 0.05 0
1.625 0.025 0
1.65 0.025 0
1.625 0.05 0
1.65 0.05 0
1.65 0 0
1.675 0 0
1.65 0.025 0
1.675 0.025 0
1.675 0 0
1.7 0 0
1.675 0.025 0
1.7 0.025 0
1.65 0.025 0
1.675 0.025 0
1.65 0.05 0
1.675 0.05 0
1.675 0.025 0
1.7 0.025 0
1.675 0.05 0
1.7 0.05 0
1.7 0 0
1.725 0 0
1.7 0.025 0
1.725 0.025 0
1.725 0 0
1.75 0 0
1.725 0.025 0
1.75 0.025 0
1.7 0.025 0
1.725 0.025 0
1.7 0.05 0
1.725 0.05 0
1.725 0.025 0
1.75 0.025 0
1.725 0.05 0
1.75 0.05 0
1.75 0 0
1.775 0 0
1.75 0.025 0
1.775 0.025 0
1.775 0 0
1.8 0 0
1.775 0.025 0
1.8 0.025 0
1.75 0.025 0
1.775 0.025 0
1.75 0.05 0
1.775 0.05 0
1.775 0.025 0
1.8 0.025 0
1.775 0.05 0
1.8 0.05 0
1.8 0 0
1.825 0 0
1.8 0.025 0
1.825 0.025 0
1.825 0 0
1.85 0 0
1.825 0.025 0
1.85 0.025 0
1.8 0.025 0
1.825 0.025 0
1.8 0.05 0
1.825 0.05 0
1.825 0.025 0
1.85 0.025 0
1.825 0.05 0
1.85 0.05 0
1.85 0 0
1.875 0 0
1.85 0.025 0
1.875 0.025 0
1.875 0 0
1.9 0 0
1.875 0.025 0
1.9 0.025 0
1.85 0.025 0
1.875 0.025 0
1.85 0.05 0
1.875 0.05 0
1.875 0.025 0
1.9 0.025 0
1.875 0.05 0
1.9 0.05 0
1.9 0 0
1.925 0 0
1.9 0.025 0
1.925 0.025 0
1.925 0 0
1.95 0 0
1.925 0.025 0
1.95 0.025 0
1.9 0.025 0
1.925 0.025 0
1.9 0.05 0
1.925 0.05 0
1.925 0.025 0
1.95 0.025 0
1.925 0.05 0
1.95 0.05 0
1.95 0 0
1.975 0 0
1.95 0.025 0
1.975 0.025 0
1.975 0 0
2 0 0
1.975 0.025 0
2 0.025 0
1.95 0.025 0
1.975 0.025 0
1.95 0.05 0
1.975 0.05 0
1.975 0.025 0
2 0.025 0
1.975 0.05 0
2 0.05 0
0 0.05 0
0.025 0.05 0
0 0.075 0
0.025 0.075 0
0.025 0.05 0
0.05 0.05 0
0.025 0.075 0
0.05 0.075 0
0 0.075 0
0.025 0.075 0
0 0.1 0
0.025 0.1 0
0.025 0.075 0
0.05 0.075 0
0.025 0.1 0
0.05 0.1 0
0.05 0.05 0
0.075 0.05 0
0.05 0.075 0
0.075 0.075 0
0.075 0.05 0
0.1 0.05 0
0.075 0.075 0
0.1 0.075 0
0.05 0.075 0
0.075 0.075 0
0.05 0.1 0
0.075 0.1 0
0.075 0.075 0
0.1 0.075 0
0.075 0.1 0
0.1 0.1 0
0.3 0.05 0
0.325 0.05 0
0.3 0.075 0
0.325 0.075 0
0.325 0.05 0
0.35 0.05 0
0.325 0.075 0
0.35 0.075 0
0.3 0.075 0
0.325 0.075 0
0.3 0.1 0
0.325 0.1 0
0.325 0.075 0
0.35 0.075 0
0.325 0.1 0
0.35 0.1 0
0.35 0.05 0
0.375 0.05 0
0.35 0.075 0
0.375 0.075 0
0.375 0.05 0
0.4 0.05 0
0.375 0.075 0
0.4 0.075 0
0.35 0.075 0
0.375 0.075 0
0.35 0.1 0
0.375 0.1 0
0.375 0.075 0
0.4 0.075 0
0.375 0.1 0
0.4 0.1 0
0.4 0.05 0
0.425 0.05 0
0.4 0.075 0
0.425 0.075 0
0.425 0.05 0
0.45 0.05 0
0.425 0.075 0
0.45 0.075 0
0.4 0.075 0
0.425 0.075 0
0.4 0.1 0
0.425 0.1 0
0.425 0.075 0
0.45 0.075 0
0.425 0.1 0
0.45 0.1 0
0.45 0.05 0
0.475 0.05 0
0.45 0.075 0
0.475 0.075 0
0.475 0.05 0
0.5 0.05 0
0.475 0.075 0
0.5 0.075 0
0.45 0.075 0
0.475 0.075 0
0.45 0.1 0
0.475 0.1 0
0.475 0.075 0
0.5 0.075 0
0.475 0.1 0
0.5 0.1 0
0.5 0.05 0
0.525 0.05 0
0.5 0.075 0
0.525 0.075 0
0.525 0.05 0
0.55 0.05 0
0.525 0.075 0
0.55 0.075 0
0.5 0.075 0
0.525 0.075 0
0.5 0.1 0
0.525 0.1 0
0.525 0.075 0
0.55 0.075 0
0.525 0.1 0
0.55 0.1 0
0.55 0.05 0
0.575 0.05 0
0.55 0.075 0
0.575 0.075 0
0.575 0.05 0
0.6 0.05 0
0.575 0.075 0
0.6 0.075 0
0.55 0.075 0
0.575 0.075 0
0.55 0.1 0
0.575 0.1 0
0.575 0.075 0
0.6 0.075 0
0.575 0.1 0
0.6 0.1 0
0.6 0.05 0
0.625 0.05 0
0.6 0.075 0
0.625 0.075 0
0.625 0.05 0
0.65 0.05 0
0.625 0.075 0
0.65 0.075 0
0.6 0.075 0
0.625 0.075 0
0.6 0.1 0
0.625 0.1 0
0.625 0.075 0
0.65 0.075 0
0.625 0.1 0
0.65 0.1 0
0.65 0.05 0
0.675 0.05 0
0.65 0.075 0
0.675 0.075 0
0.675 0.05 0
0.7 0.05 0
0.675 0.075 0
0.7 0.075 0
0.65 0.075 0
0.675 0.075 0
0.65 0.1 0
0.675 0.1 0
0.675 0.075 0
0.7 0.075 0
0.675 0.1 0
0.7 0.1 0
0.7 0.05 0
0.725 0.05 0
0.7 0.075 0
0.725 0.075 0
0.725 0.05 0
0.75 0.05 0
0.725 0.075 0
0.75 0.075 0
0.7 0.075 0
0.725 0.075 0
0.7 0.1 0
0.725 0.1 0
0.725 0.075 0
0.75 0.075 0
0.725 0.1 0
0.75 0.1 0
0.75 0.05 0
0.775 0.05 0
0.75 0.075 0
0.775 0.075 0
0.775 0.05 0
0.8 0.05 0
0.775 0.075 0
0.8 0.075 0
0.75 0.075 0
0.775 0.075 0
0.75 0.1 0
0.775 0.1 0
0.775 0.075 0
0.8 0.075 0
0.775 0.1 0
0.8 0.1 0
0.8 0.05 0
0.825 0.05 0
0.8 0.075 0
0.825 0.075 0
0.825 0.05 0
0.85 0.05 0
0.825 0.075 0
0.85 0.075 0
0.8 0.075 0
0.825 0.075 0
0.8 0.1 0
0.825 0.1 0
0.825 0.075 0
0.85 0.075 0
0.825 0.1 0
0.85 0.1 0
0.85 0.05 0
0.875 0.05 0
0.85 0.075 0
0.875 0.075 0
0.875 0.05 0
0.9 0.05 0
0.875 0.075 0
0.9 0.075 0
0.85 0.075 0
0.875 0.075 0
0.85 0.1 0
0.875 0.1 0
0.875 0.075 0
0.9 0.075 0
0.875 0.1 0
0.9 0.1 0
0.9 0.05 0
0.925 0.05 0
0.9 0.075 0
0.925 0.075 0
0.925 0.05 0
0.95 0.05 0
0.925 0.075 0
0.95 0.075 0
0.9 0.075 0
0.925 0.075 0
0.9 0.1 0
0.925 0.1 0
0.925 0.075 0
0.95 0.075 0
0.925 0.1 0
0.95 0.1 0
0.95 0.05 0
0.975 0.05 0
0.95 0.075 0
0.975 0.075 0
0.975 0.05 0
1 0.05 0
0.975 0.075 0
1 0.075 0
0.95 0.075 0
0.975 0.075 0
0.95 0.1 0
0.975 0.1 0
[...]
POINT_DATA 11636
SCALARS x_displacement double 1
LOOKUP_TABLE default
0 -1.59629 0 -0.966042 -1.59629 -2.77425 -0.966042 -1.95536 -2.77425 -3.74109 -1.95536 -2.79481 -3.74109 -4.55777 -2.79481 -3.51862 -4.55777 -5.2813 -3.51862 -4.16374 -5.2813 -5.97712 -4.16374 -4.7497 -5.97712 -6.69061 -4.7497 -5.32256 -6.69061 -7.4272 -5.32256 -5.91148 -7.4272 -8.15693 -5.91148 -6.52423 -8.15693 -8.8639 -6.52423 -7.15506 -8.8639 -9.54916 -7.15506 -7.79337 -9.54916 -10.213 -7.79337 -8.43532 -10.213 -10.8579 -8.43532 -9.07945 -10.8579 -11.4869 -9.07945 -9.72351 -11.4869 -12.103 -9.72351 -10.3654 -12.103 -12.7097 -10.3654 -11.0029 -12.7097 -13.3112 -11.0029 -11.6336 -13.3112 -13.9122 -11.6336 -12.2549 -13.9122 -14.5182 -12.2549 -12.8644 -14.5182 -15.1345 -12.8644 -13.4603 -15.1345 -15.7675 -13.4603 -14.0403 -15.7675 -16.4236 -14.0403 -14.6009 -16.4236 -17.0999 -14.6009 -15.134 -17.0999 -17.769 -15.134 -15.6258 -17.769 -18.3655 -15.6258 -16.0658 -18.3655 -18.7903 -16.0658 -16.4342 -1.95536 -2.79481 -1.47839 -2.08416 -2.79481 -3.51862 -2.08416 -2.6636 -3.51862 -4.16374 -2.6636 -3.18236 -4.16374 -4.7497 -3.18236 -3.60799 -2.6636 -3.18236 -1.96326 -2.35506 -3.18236 -3.60799 -2.35506 -2.70769 -3.9808 -4.565 -3.06728 -3.47422 -4.565 -4.99626 -3.47422 -3.81695 -4.99626 -5.19304 -3.81695 -4.00858 -5.19304 -5.36329 -4.00858 -4.22653 -5.36329 -5.86193 -4.22653 -4.60787 -5.86193 -7.54167 -4.60787 -5.78962 -8.06931 -8.08569 -6.44679 -6.38306 -8.08569 -8.0129 -6.38306 -6.29463 -8.0129 -7.92751 -6.29463 -5.9847 -7.92751 -7.82075 -5.9847 -5.60359 -7.82075 -7.6721 -5.60359 -5.38286 -7.6721 -7.48067 -5.38286 -5.0201 -9.85648 -10.1311 -7.61962 -7.8693 -10.1311 -10.13 -7.8693 -7.96958 -10.13 -10.46 -7.96958 -7.86745 -10.46 -10.3025 -7.86745 -7.87471 -0.30442 -0.411872 -0.112367 -0.0336033 -0.411872 -1.03285 -0.0336033 0.42882 -1.03285 -0.865131 0.42882 -0.0590905 -0.865131 -0.963866 -0.0590905 -0.0566429 -0.963866 -1.13772 -0.0566429 -0.145429 -1.13772 -1.45437 -0.145429 -0.41257 -1.45437 -1.83389 -0.41257 -1.10975 -1.83389 -2.26952 -1.10975 -1.56755 -6.44679 -6.38306 -4.69171 -4.61125 -1.15702 -1.27407 -0.00108503 0.00393113 -1.27407 -1.32887 0.00393113 0.00873578 -2.15113 -2.37806 -0.000968268 0.00322143 -2.37806 -2.39507 0.00322143 0.00576512 -0.00108503 0.00393113 1.16044 1.28433 0.00393113 0.00873578 1.28433 1.34354 -0.000968268 0.00322143 2.15861 2.39134 0.00322143 0.00576512 2.39134 2.41131 1.91431 2.30631 2.63923 3.15773 2.30631 2.65834 3.15773 3.58323 1.45634 2.06042 1.95497 2.79459 2.06042 2.63923 2.79459 3.51845 2.63923 3.15773 3.51845 4.1632 3.15773 3.58323 4.1632 4.74871 0 0.965396 0 1.60978 0.965396 1.95497 1.60978 2.79562 1.95497 2.79459 2.79562 3.7658 2.79459 3.51845 3.7658 4.58319 3.51845 4.1632 4.58319 5.30583 4.1632 4.74871 5.30583 5.99938 4.74871 5.32151 5.99938 6.70883 5.32151 5.91192 6.70883 7.4388 5.91192 6.52804 7.4388 8.15998 6.52804 7.16374 8.15998 8.85827 7.16374 7.8073 8.85827 9.53622 7.8073 8.45445 9.53622 10.1948 8.45445 9.10351 10.1948 10.8368 9.10351 9.75218 10.8368 11.4652 9.75218 10.3984 11.4652 12.0831 10.3984 11.0399 12.0831 12.694 11.0399 11.6743 12.694 13.302 11.6743 12.2993 13.302 13.9115 12.2993 12.9123 13.9115 14.5279 12.9123 13.5118 14.5279 15.1562 13.5118 14.0957 15.1562 15.8022 14.0957 14.6605 15.8022 16.4717 14.6605 15.1981 16.4717 17.1609 15.1981 15.6944 17.1609 17.8417 15.6944 16.1386 17.8417 18.4482 16.1386 16.5108 18.4482 18.8804 -18.7903 -18.9405 -17.6123 -17.7178 -18.9405 -19.0339 -17.7178 -17.8237 -17.6123 -17.7178 -16.4342 -16.5988 -17.7178 -17.8237 -16.5988 -16.7564 -19.0339 -19.1104 -17.8237 -17.9489 -19.1104 -19.1365 -17.9489 -18.1134 -17.8237 -17.9489 -16.7564 -16.9373 -17.9489 -18.1134 -16.9373 -17.1098 -19.1365 -19.0265 -18.1134 -18.367 -19.0265 -19.5571 -18.367 -18.5395 -18.1134 -18.367 -17.1098 -17.2322 -18.367 -18.5395 -17.2322 -17.2932 -19.5571 -19.9335 -18.5395 -18.6387 -19.9335 -20.0828 -18.6387 -18.7786 -18.5395 -18.6387 -17.2932 -17.288 -18.6387 -18.7786 -17.288 -17.3767 -20.0828 -20.3173 -18.7786 -18.4952 -20.3173 -20.3983 -18.4952 -18.973 -18.7786 -18.4952 -17.3767 -17.4074 -18.4952 -18.973 -17.4074 -17.7295 -20.3983 -20.6122 -18.973 -19.2423 -20.6122 -20.8084 -19.2423 -19.4503 -18.973 -19.2423 -17.7295 -17.9856 -19.2423 -19.4503 -17.9856 -18.186 -20.8084 -20.9711 -19.4503 -19.6136 -20.9711 -21.0943 -19.6136 -19.7409 -19.4503 -19.6136 -18.186 -18.3259 -19.6136 -19.7409 -18.3259 -18.4485 -21.0943 -21.1828 -19.7409 -19.8424 -21.1828 -21.2428 -19.8424 -19.9207 -19.7409 -19.8424 -18.4485 -18.5577 -19.8424 -19.9207 -18.5577 -18.6467 -21.2428 -21.2785 -19.9207 -19.9776 -21.2785 -21.2939 -19.9776 -20.0167 -19.9207 -19.9776 -18.6467 -18.7176 -19.9776 -20.0167 -18.7176 -18.7726 -21.2939 -21.2938 -20.0167 -20.0414 -21.2938 -21.2829 -20.0414 -20.0549 -20.0167 -20.0414 -18.7726 -18.8151 -20.0414 -20.0549 -18.8151 -18.8464 -21.2829 -21.265 -20.0549 -20.06 -21.265 -21.2436 -20.06 -20.0594 -20.0549 -20.06 -18.8464 -18.8684 -20.06 -20.0594 -18.8684 -18.8831 -21.2436 -21.2217 -20.0594 -20.0553 -21.2217 -21.2018 -20.0553 -20.0499 -20.0594 -20.0553 -18.8831 -18.8923 -20.0553 -20.0499 -18.8923 -18.8976 -21.2018 -21.1861 -20.0499 -20.0445 -21.1861 -21.176 -20.0445 -20.0404 -20.0499 -20.0445 -18.8976 -18.9003 -20.0445 -20.0404 -18.9003 -18.9013 -21.176 -21.1716 -20.0404 -20.0382 -21.1716 -21.1708 -20.0382 -20.038 -20.0404 -20.0382 -18.9013 -18.9021 -20.0382 -20.038 -18.9021 -18.9036 0 -0.483021 0 -0.41199 -0.483021 -0.966042 -0.41199 -0.868901 0 -0.41199 0 -0.420776 -0.41199 -0.868901 -0.420776 -0.898127 -0.966042 -1.4607 -0.868901 -1.29801 -1.4607 -1.95536 -1.29801 -1.71688 -0.868901 -1.29801 -0.898127 -1.2105 -1.29801 -1.71688 -1.2105 -1.47839 -4.7497 -5.03613 -4.17885 -4.40215 -5.03613 -5.32256 -4.40215 -4.62987 -4.17885 -4.40215 -3.60799 -3.79877 -4.40215 -4.62987 -3.79877 -3.96063 -5.32256 -5.61702 -4.62987 -4.87031 -5.61702 -5.91148 -4.87031 -5.12845 -4.62987 -4.87031 -3.96063 -4.12103 -4.87031 -5.12845 -4.12103 -4.30291 -5.91148 -6.21785 -5.12845 -5.4082 -6.21785 -6.52423 -5.4082 -5.7001 -5.12845 -5.4082 -4.30291 -4.56249 -5.4082 -5.7001 -4.56249 -4.86152 -6.52423 -6.83965 -5.7001 -5.99766 -6.83965 -7.15506 -5.99766 -6.30013 -5.7001 -5.99766 -4.86152 -5.15025 -5.99766 -6.30013 -5.15025 -5.437 -7.15506 -7.47422 -6.30013 -6.60556 -7.47422 -7.79337 -6.60556 -6.91598 -6.30013 -6.60556 -5.437 -5.73079 -6.60556 -6.91598 -5.73079 -6.03239 -7.79337 -8.11435 -6.91598 -7.23006 -8.11435 -8.43532 -7.23006 -7.54841 -6.91598 -7.23006 -6.03239 -6.34306 -7.23006 -7.54841 -6.34306 -6.65978 -8.43532 -8.75738 -7.54841 -7.86916 -8.75738 -9.07945 -7.86916 -8.19283 -7.54841 -7.86916 -6.65978 -6.98091 -7.86916 -8.19283 -6.98091 -7.30662 -9.07945 -9.40148 -8.19283 -8.51808 -9.40148 -9.72351 -8.51808 -8.84517 -8.19283 -8.51808 -7.30662 -7.63651 -8.51808 -8.84517 -7.63651 -7.97017 -9.72351 -10.0445 -8.84517 -9.17281 -10.0445 -10.3654 -9.17281 -9.50089 -8.84517 -9.17281 -7.97017 -8.30569 -9.17281 -9.50089 -8.30569 -8.64318 -10.3654 -10.6842 -9.50089 -9.82829 -10.6842 -11.0029 -9.82829 -10.1546 -9.50089 -9.82829 -8.64318 -8.97982 -9.82829 -10.1546 -8.97982 -9.31644 -11.0029 -11.3183 -10.1546 -10.479 -11.3183 -11.6336 -10.479 -10.8006 -10.1546 -10.479 -9.31644 -9.64989 -10.479 -10.8006 -9.64989 -9.9813 -11.6336 -11.9443 -10.8006 -11.1191 -11.9443 -12.2549 -11.1191 -11.433 -10.8006 -11.1191 -9.9813 -10.3072 -11.1191 -11.433 -10.3072 -10.6286 -12.2549 -12.5597 -11.433 -11.7422 -12.5597 -12.8644 -11.7422 -12.0447 -11.433 -11.7422 -10.6286 -10.9414 -11.7422 -12.0447 -10.9414 -11.246 -12.8644 -13.1624 -12.0447 -12.3411 -13.1624 -13.4603 -12.3411 -12.6297 -12.0447 -12.3411 -11.246 -11.5375 -12.3411 -12.6297 -11.5375 -11.82 -13.4603 -13.7503 -12.6297 -12.9121 -13.7503 -14.0403 -12.9121 -13.1858 -12.6297 -12.9121 -11.82 -12.0937 -12.9121 -13.1858 -12.0937 -12.3593 -14.0403 -14.3206 -13.1858 -13.4526 -14.3206 -14.6009 -13.4526 -13.7078 -13.1858 -13.4526 -12.3593 -12.6159 -13.4526 -13.7078 -12.6159 -12.8591 -14.6009 -14.8675 -13.7078 -13.9531 -14.8675 -15.134 -13.9531 -14.1835 -13.7078 -13.9531 -12.8591 -13.0806 -13.9531 -14.1835 -13.0806 -13.2838 -15.134 -15.3799 -14.1835 -14.4025 -15.3799 -15.6258 -14.4025 -14.6065 -14.1835 -14.4025 -13.2838 -13.4668 -14.4025 -14.6065 -13.4668 -13.6329 -15.6258 -15.8458 -14.6065 -14.8017 -15.8458 -16.0658 -14.8017 -14.986 -14.6065 -14.8017 -13.6329 -13.7822 -14.8017 -14.986 -13.7822 -13.9267 -16.0658 -16.25 -14.986 -15.1651 -16.25 -16.4342 -15.1651 -15.3357 -14.986 -15.1651 -13.9267 -14.0719 -15.1651 -15.3357 -14.0719 -14.2178 -16.4342 -16.5988 -15.3357 -15.4962 -16.5988 -16.7564 -15.4962 -15.6522 -15.3357 -15.4962 -14.2178 -14.3599 -15.4962 -15.6522 -14.3599 -14.4924 -16.7564 -16.9373 -15.6522 -15.8021 -16.9373 -17.1098 -15.8021 -15.9325 -15.6522 -15.8021 -14.4924 -14.6206 -15.8021 -15.9325 -14.6206 -14.7482 -17.1098 -17.2322 -15.9325 -16.0266 -17.2322 -17.2932 -16.0266 -16.1019 -15.9325 -16.0266 -14.7482 -14.8678 -16.0266 -16.1019 -14.8678 -15.0064 -17.2932 -17.288 -16.1019 -16.2484 -17.288 -17.3767 -16.2484 -16.6344 -16.1019 -16.2484 -15.0064 -15.205 -16.2484 -16.6344 -15.205 -15.3766 -17.3767 -17.4074 -16.6344 -16.7597 -17.4074 -17.7295 -16.7597 -16.7796 -16.6344 -16.7597 -15.3766 -15.4793 -16.7597 -16.7796 -15.4793 -15.514 -17.7295 -17.9856 -16.7796 -16.8981 -17.9856 -18.186 -16.8981 -16.9645 -16.7796 -16.8981 -15.514 -15.4472 -16.8981 -16.9645 -15.4472 -15.7031 -18.186 -18.3259 -16.9645 -17.077 -18.3259 -18.4485 -17.077 -17.2071 -16.9645 -17.077 -15.7031 -15.8959 -17.077 -17.2071 -15.8959 -16.0054 -18.4485 -18.5577 -17.2071 -17.3174 -18.5577 -18.6467 -17.3174 -17.4138 -17.2071 -17.3174 -16.0054 -16.1201 -17.3174 -17.4138 -16.1201 -16.1968 -18.6467 -18.7176 -17.4138 -17.4909 -18.7176 -18.7726 -17.4909 -17.5594 -17.4138 -17.4909 -16.1968 -16.2933 -17.4909 -17.5594 -16.2933 -16.377 -18.7726 -18.8151 -17.5594 -17.6159 -18.8151 -18.8464 -17.6159 -17.6606 -17.5594 -17.6159 -16.377 -16.4465 -17.6159 -17.6606 -16.4465 -16.5004 -18.8464 -18.8684 -17.6606 -17.6947 -18.8684 -18.8831 -17.6947 -17.7203 -17.6606 -17.6947 -16.5004 -16.5421 -17.6947 -17.7203 -16.5421 -16.5755 -18.8831 -18.8923 -17.7203 -17.7394 -18.8923 -18.8976 -17.7394 -17.753 -17.7203 -17.7394 -16.5755 -16.6021 -17.7394 -17.753 -16.6021 -16.6223 -18.8976 -18.9003 -17.753 -17.762 -18.9003 -18.9013 -17.762 -17.7672 -17.753 -17.762 -16.6223 -16.6364 -17.762 -17.7672 -16.6364 -16.645 -18.9013 -18.9021 -17.7672 -17.7701 -18.9021 -18.9036 -17.7701 -17.7732 -17.7672 -17.7701 -16.645 -16.6495 -17.7701 -17.7732 -16.6495 -16.6534 0 -0.420776 0 -0.652839 -0.420776 -0.898127 -0.652839 -0.926216 0 -0.652839 0 -0.716083 -0.652839 -0.926216 -0.716083 -0.719588 -0.898127 -1.2105 -0.926216 -1.0581 -1.2105 -1.47839 -1.0581 -1.22726 -0.926216 -1.0581 -0.719588 -0.773142 -1.0581 -1.22726 -0.773142 -0.903845 -1.47839 -1.78128 -1.22726 -1.47712 -1.78128 -2.08416 -1.47712 -1.76963 -1.22726 -1.47712 -0.903845 -1.20294 -1.47712 -1.76963 -1.20294 -1.55569 -2.08416 -2.37388 -1.76963 -2.04924 -2.37388 -2.6636 -2.04924 -2.31343 -1.76963 -2.04924 -1.55569 -1.77894 -2.04924 -2.31343 -1.77894 -1.96326 -3.60799 -3.79877 -3.15784 -3.28832 -3.79877 -3.96063 -3.28832 -3.41436 -3.15784 -3.28832 -2.70769 -2.87541 -3.28832 -3.41436 -2.87541 -3.0298 -3.96063 -4.12103 -3.41436 -3.52596 -4.12103 -4.30291 -3.52596 -3.63549 -3.41436 -3.52596 -3.0298 -3.1906 -3.52596 -3.63549 -3.1906 -3.36884 -4.30291 -4.56249 -3.63549 -3.8078 -4.56249 -4.86152 -3.8078 -4.09286 -3.63549 -3.8078 -3.36884 -3.56811 -3.8078 -4.09286 -3.56811 -3.74305 -4.86152 -5.15025 -4.09286 -4.32385 -5.15025 -5.437 -4.32385 -4.56867 -4.09286 -4.32385 -3.74305 -3.90934 -4.32385 -4.56867 -3.90934 -4.05841 -5.437 -5.73079 -4.56867 -4.84338 -5.73079 -6.03239 -4.84338 -5.14297 -4.56867 -4.84338 -4.05841 -4.19211 -4.84338 -5.14297 -4.19211 -4.48487 -6.03239 -6.34306 -5.14297 -5.45363 -6.34306 -6.65978 -5.45363 -5.77432 -5.14297 -5.45363 -4.48487 -4.75504 -5.45363 -5.77432 -4.75504 -5.07674 -6.65978 -6.98091 -5.77432 -6.09751 -6.98091 -7.30662 -6.09751 -6.42694 -5.77432 -6.09751 -5.07674 -5.47198 -6.09751 -6.42694 -5.47198 -5.85443 -7.30662 -7.63651 -6.42694 -6.76524 -7.63651 -7.97017 -6.76524 -7.1081 -6.42694 -6.76524 -5.85443 -6.19917 -6.76524 -7.1081 -6.19917 -6.53187 -7.97017 -8.30569 -7.1081 -7.45715 -8.30569 -8.64318 -7.45715 -7.80686 -7.1081 -7.45715 -6.53187 -6.86495 -7.45715 -7.80686 -6.86495 -7.19243 -8.64318 -8.97982 -7.80686 -8.1591 -8.97982 -9.31644 -8.1591 -8.5079 -7.80686 -8.1591 -7.19243 -7.52598 -8.1591 -8.5079 -7.52598 -7.85855 -9.31644 -9.64989 -8.5079 -8.85664 -9.64989 -9.9813 -8.85664 -9.19845 -8.5079 -8.85664 -7.85855 -8.19293 -8.85664 -9.19845 -8.19293 -8.52437 -9.9813 -10.3072 -9.19845 -9.53748 -10.3072 -10.6286 -9.53748 -9.86578 -9.19845 -9.53748 -8.52437 -8.85281 -9.53748 -9.86578 -8.85281 -9.17396 -10.6286 -10.9414 -9.86578 -10.1867 -10.9414 -11.246 -10.1867 -10.4918 -9.86578 -10.1867 -9.17396 -9.48704 -10.1867 -10.4918 -9.48704 -9.79332 -11.246 -11.5375 -10.4918 -10.7811 -11.5375 -11.82 -10.7811 -11.0598 -10.4918 -10.7811 -9.79332 -10.0956 -10.7811 -11.0598 -10.0956 -10.3998 -11.82 -12.0937 -11.0598 -11.3344 -12.0937 -12.3593 -11.3344 -11.601 -11.0598 -11.3344 -10.3998 -10.7011 -11.3344 -11.601 -10.7011 -10.9738 -12.3593 -12.6159 -11.601 -11.8576 -12.6159 -12.8591 -11.8576 -12.0871 -11.601 -11.8576 -10.9738 -11.1923 -11.8576 -12.0871 -11.1923 -11.37 -12.8591 -13.0806 -12.0871 -12.2809 -13.0806 -13.2838 -12.2809 -12.4428 -12.0871 -12.2809 -11.37 -11.5105 -12.2809 -12.4428 -11.5105 -11.616 -13.2838 -13.4668 -12.4428 -12.5762 -13.4668 -13.6329 -12.5762 -12.6831 -12.4428 -12.5762 -11.616 -11.6877 -12.5762 -12.6831 -11.6877 -11.733 -13.6329 -13.7822 -12.6831 -12.7709 -13.7822 -13.9267 -12.7709 -12.8529 -12.6831 -12.7709 -11.733 -11.7599 -12.7709 -12.8529 -11.7599 -11.7783 -13.9267 -14.0719 -12.8529 -12.9432 -14.0719 -14.2178 -12.9432 -13.0473 -12.8529 -12.9432 -11.7783 -11.7996 -12.9432 -13.0473 -11.7996 -11.8463 -14.2178 -14.3599 -13.0473 -13.171 -14.3599 -14.4924 -13.171 -13.3098 -13.0473 -13.171 -11.8463 -11.966 -13.171 -13.3098 -11.966 -12.1427 -14.4924 -14.6206 -13.3098 -13.4489 -14.6206 -14.7482 -13.4489 -13.5881 -13.3098 -13.4489 -12.1427 -12.2826 -13.4489 -13.5881 -12.2826 -12.4113 -14.7482 -14.8678 -13.5881 -13.7275 -14.8678 -15.0064 -13.7275 -13.8682 -13.5881 -13.7275 -12.4113 -12.5475 -13.7275 -13.8682 -12.5475 -12.6803 -15.0064 -15.205 -13.8682 -14.0044 -15.205 -15.3766 -14.0044 -14.1324 -13.8682 -14.0044 -12.6803 -12.8117 -14.0044 -14.1324 -12.8117 -12.9577 -15.3766 -15.4793 -14.1324 -14.2486 -15.4793 -15.514 -14.2486 -14.3533 -14.1324 -14.2486 -12.9577 -13.116 -14.2486 -14.3533 -13.116 -13.2732 -15.514 -15.4472 -14.3533 -14.5243 -15.4472 -15.7031 -14.5243 -14.7412 -14.3533 -14.5243 -13.2732 -13.4127 -14.5243 -14.7412 -13.4127 -13.4985 -15.7031 -15.8959 -14.7412 -14.848 -15.8959 -16.0054 -14.848 -14.9371 -14.7412 -14.848 -13.4985 -13.5453 -14.848 -14.9371 -13.5453 -13.6227 -16.0054 -16.1201 -14.9371 -14.804 -16.1201 -16.1968 -14.804 -15.0016 -14.9371 -14.804 -13.6227 -13.6115 -14.804 -15.0016 -13.6115 -13.8754 -16.1968 -16.2933 -15.0016 -15.1285 -16.2933 -16.377 -15.1285 -15.234 -15.0016 -15.1285 -13.8754 -14.0352 -15.1285 -15.234 -14.0352 -14.1499 -16.377 -16.4465 -15.234 -15.3119 -16.4465 -16.5004 -15.3119 -15.3675 -15.234 -15.3119 -14.1499 -14.2096 -15.3119 -15.3675 -14.2096 -14.2589 -16.5004 -16.5421 -15.3675 -15.4129 -16.5421 -16.5755 -15.4129 -15.4521 -15.3675 -15.4129 -14.2589 -14.3087 -15.4129 -15.4521 -14.3087 -14.3537 -16.5755 -16.6021 -15.4521 -15.4847 -16.6021 -16.6223 -15.4847 -15.5103 -15.4521 -15.4847 -14.3537 -14.3912 -15.4847 -15.5103 -14.3912 -14.4206 -16.6223 -16.6364 -15.5103 -15.529 -16.6364 -16.645 -15.529 -15.5408 -15.5103 -15.529 -14.4206 -14.4431 -15.529 -15.5408 -14.4431 -14.4589 -16.645 -16.6495 -15.5408 -15.5466 -16.6495 -16.6534 -15.5466 -15.5504 -15.5408 -15.5466 -14.4589 -14.4663 -15.5466 -15.5504 -14.4663 -14.4686 0 -0.716083 0 -0.267018 -0.716083 -0.719588 -0.267018 -0.419687 0 -0.267018 0 -0.259921 -0.267018 -0.419687 -0.259921 -0.555584 -0.719588 -0.773142 -0.419687 -0.442816 -0.773142 -0.903845 -0.442816 -0.589292 -0.419687 -0.442816 -0.555584 -0.936883 -0.442816 -0.589292 -0.936883 -0.995992 -0.903845 -1.20294 -0.589292 -1.17342 -1.20294 -1.55569 -1.17342 -1.37439 -0.589292 -1.17342 -0.995992 -1.06014 -1.17342 -1.37439 -1.06014 -1.03207 -1.55569 -1.77894 -1.37439 -1.47301 -1.77894 -1.96326 -1.47301 -1.59622 -1.37439 -1.47301 -1.03207 -1.07991 -1.47301 -1.59622 -1.07991 -1.19428 -1.96326 -2.15916 -1.59622 -1.77294 -2.15916 -2.35506 -1.77294 -1.97365 -1.59622 -1.77294 -1.19428 -1.41553 -1.77294 -1.97365 -1.41553 -1.66735 -2.35506 -2.53138 -1.97365 -2.16512 -2.53138 -2.70769 -2.16512 -2.34294 -1.97365 -2.16512 -1.66735 -1.84542 -2.16512 -2.34294 -1.84542 -1.99804 -2.70769 -2.87541 -2.34294 -2.51324 -2.87541 -3.0298 -2.51324 -2.68417 -2.34294 -2.51324 -1.99804 -2.15975 -2.51324 -2.68417 -2.15975 -2.32657 -3.0298 -3.1906 -2.68417 -2.86032 -3.1906 -3.36884 -2.86032 -3.03472 -2.68417 -2.86032 -2.32657 -2.49898 -2.86032 -3.03472 -2.49898 -2.67254 -3.36884 -3.56811 -3.03472 -3.19124 -3.56811 -3.74305 -3.19124 -3.34291 -3.03472 -3.19124 -2.67254 -2.8399 -3.19124 -3.34291 -2.8399 -3.02405 -3.74305 -3.90934 -3.34291 -3.52549 -3.90934 -4.05841 -3.52549 -3.74743 -3.34291 -3.52549 -3.02405 -3.24728 -3.52549 -3.74743 -3.24728 -3.4697 -4.05841 -4.19211 -3.74743 -4.00622 -4.19211 -4.48487 -4.00622 -4.23608 -3.74743 -4.00622 -3.4697 -3.64877 -4.00622 -4.23608 -3.64877 -3.77759 -4.48487 -4.75504 -4.23608 -4.36928 -4.75504 -5.07674 -4.36928 -4.41839 -4.23608 -4.36928 -3.77759 -3.89358 -4.36928 -4.41839 -3.89358 -3.96246 -5.07674 -5.47198 -4.41839 -4.5618 -5.47198 -5.85443 -4.5618 -4.98801 -4.41839 -4.5618 -3.96246 -3.87023 -4.5618 -4.98801 -3.87023 -4.18217 -5.85443 -6.19917 -4.98801 -5.43293 -6.19917 -6.53187 -5.43293 -5.81355 -4.98801 -5.43293 -4.18217 -4.64501 -5.43293 -5.81355 -4.64501 -4.99509 -6.53187 -6.86495 -5.81355 -6.1098 -6.86495 -7.19243 -6.1098 -6.45345 -5.81355 -6.1098 -4.99509 -5.41164 -6.1098 -6.45345 -5.41164 -5.78823 -7.19243 -7.52598 -6.45345 -6.76876 -7.52598 -7.85855 -6.76876 -7.11994 -6.45345 -6.76876 -5.78823 -6.1868 -6.76876 -7.11994 -6.1868 -6.53204 -7.85855 -8.19293 -7.11994 -7.44039 -8.19293 -8.52437 -7.44039 -7.78542 -7.11994 -7.44039 -6.53204 -6.89943 -7.44039 -7.78542 -6.89943 -7.32753 -8.52437 -8.85281 -7.78542 -8.10371 -8.85281 -9.17396 -8.10371 -8.43494 -7.78542 -8.10371 -7.32753 -7.81545 -8.10371 -8.43494 -7.81545 -8.19915 -9.17396 -9.48704 -8.43494 -8.74524 -9.48704 -9.79332 -8.74524 -9.07858 -8.43494 -8.74524 -8.19915 -8.58086 -8.74524 -9.07858 -8.58086 -8.91739 -9.79332 -10.0956 -9.07858 -9.48079 -10.0956 -10.3998 -9.48079 -9.86061 -9.07858 -9.48079 -8.91739 -9.2139 -9.48079 -9.86061 -9.2139 -9.39525 -10.3998 -10.7011 -9.86061 -10.174 -10.7011 -10.9738 -10.174 -10.3745 -9.86061 -10.174 -9.39525 -9.5461 -10.174 -10.3745 -9.5461 -9.66238 -10.9738 -11.1923 -10.3745 -10.5166 -11.1923 -11.37 -10.5166 -10.6329 -10.3745 -10.5166 -9.66238 -9.75767 -10.5166 -10.6329 -9.75767 -9.83206 -11.37 -11.5105 -10.6329 -10.7214 -11.5105 -11.616 -10.7214 -10.7739 -10.6329 -10.7214 -9.83206 -9.87832 -10.7214 -10.7739 -9.87832 -9.89648 -11.616 -11.6877 -10.7739 -10.7953 -11.6877 -11.733 -10.7953 -10.792 -10.7739 -10.7953 -9.89648 -9.88968 -10.7953 -10.792 -9.88968 -9.86292 -11.733 -11.7599 -10.792 -10.7773 -11.7599 -11.7783 -10.7773 -10.7534 -10.792 -10.7773 -9.86292 -9.82563 -10.7773 -10.7534 -9.82563 -9.77986 -11.7783 -11.7996 -10.7534 -10.7206 -11.7996 -11.8463 -10.7206 -10.7076 -10.7534 -10.7206 -9.77986 -9.7115 -10.7206 -10.7076 -9.7115 -9.64311 -11.8463 -11.966 -10.7076 -10.8028 -11.966 -12.1427 -10.8028 -10.9665 -10.7076 -10.8028 -9.64311 -9.60148 -10.8028 -10.9665 -9.60148 -9.68965 -12.1427 -12.2826 -10.9665 -11.0685 -12.2826 -12.4113 -11.0685 -11.183 -10.9665 -11.0685 -9.68965 -9.79165 -11.0685 -11.183 -9.79165 -9.93677 -12.4113 -12.5475 -11.183 -11.3322 -12.5475 -12.6803 -11.3322 -11.4986 -11.183 -11.3322 -9.93677 -10.1465 -11.3322 -11.4986 -10.146