# vtk DataFile Version 3.0
#This file was generated by the deal.II library on 2015/8/30 at 10:13:44
ASCII
DATASET UNSTRUCTURED_GRID

POINTS 8 double
0 0 0
1 0 0
0 1 0
1 1 0
1 0 0
2 0 0
1 1 0
2 1 0

CELLS 2 10
4	0	1	3	2
4	4	5	7	6

CELL_TYPES 2
 9 9
POINT_DATA 8
SCALARS x_displacement double 1
LOOKUP_TABLE default
0 -36.431 0 36.431 -36.431 -71.1354 36.431 71.1354 
SCALARS y_displacement double 1
LOOKUP_TABLE default
0 -47.6603 0 -47.6603 -47.6603 -202.296 -47.6603 -202.296 
