# vtk DataFile Version 3.0
#This file was generated by the deal.II library on 2015/9/1 at 17:12:53
ASCII
DATASET UNSTRUCTURED_GRID

POINTS 3200 double
0 0 0
0.05 0 0
0 0.05 0
0.05 0.05 0
0.05 0 0
0.1 0 0
0.05 0.05 0
0.1 0.05 0
0.1 0 0
0.15 0 0
0.1 0.05 0
0.15 0.05 0
0.15 0 0
0.2 0 0
0.15 0.05 0
0.2 0.05 0
0.2 0 0
0.25 0 0
0.2 0.05 0
0.25 0.05 0
0.25 0 0
0.3 0 0
0.25 0.05 0
0.3 0.05 0
0.3 0 0
0.35 0 0
0.3 0.05 0
0.35 0.05 0
0.35 0 0
0.4 0 0
0.35 0.05 0
0.4 0.05 0
0.4 0 0
0.45 0 0
0.4 0.05 0
0.45 0.05 0
0.45 0 0
0.5 0 0
0.45 0.05 0
0.5 0.05 0
0.5 0 0
0.55 0 0
0.5 0.05 0
0.55 0.05 0
0.55 0 0
0.6 0 0
0.55 0.05 0
0.6 0.05 0
0.6 0 0
0.65 0 0
0.6 0.05 0
0.65 0.05 0
0.65 0 0
0.7 0 0
0.65 0.05 0
0.7 0.05 0
0.7 0 0
0.75 0 0
0.7 0.05 0
0.75 0.05 0
0.75 0 0
0.8 0 0
0.75 0.05 0
0.8 0.05 0
0.8 0 0
0.85 0 0
0.8 0.05 0
0.85 0.05 0
0.85 0 0
0.9 0 0
0.85 0.05 0
0.9 0.05 0
0.9 0 0
0.95 0 0
0.9 0.05 0
0.95 0.05 0
0.95 0 0
1 0 0
0.95 0.05 0
1 0.05 0
1 0 0
1.05 0 0
1 0.05 0
1.05 0.05 0
1.05 0 0
1.1 0 0
1.05 0.05 0
1.1 0.05 0
1.1 0 0
1.15 0 0
1.1 0.05 0
1.15 0.05 0
1.15 0 0
1.2 0 0
1.15 0.05 0
1.2 0.05 0
1.2 0 0
1.25 0 0
1.2 0.05 0
1.25 0.05 0
1.25 0 0
1.3 0 0
1.25 0.05 0
1.3 0.05 0
1.3 0 0
1.35 0 0
1.3 0.05 0
1.35 0.05 0
1.35 0 0
1.4 0 0
1.35 0.05 0
1.4 0.05 0
1.4 0 0
1.45 0 0
1.4 0.05 0
1.45 0.05 0
1.45 0 0
1.5 0 0
1.45 0.05 0
1.5 0.05 0
1.5 0 0
1.55 0 0
1.5 0.05 0
1.55 0.05 0
1.55 0 0
1.6 0 0
1.55 0.05 0
1.6 0.05 0
1.6 0 0
1.65 0 0
1.6 0.05 0
1.65 0.05 0
1.65 0 0
1.7 0 0
1.65 0.05 0
1.7 0.05 0
1.7 0 0
1.75 0 0
1.7 0.05 0
1.75 0.05 0
1.75 0 0
1.8 0 0
1.75 0.05 0
1.8 0.05 0
1.8 0 0
1.85 0 0
1.8 0.05 0
1.85 0.05 0
1.85 0 0
1.9 0 0
1.85 0.05 0
1.9 0.05 0
1.9 0 0
1.95 0 0
1.9 0.05 0
1.95 0.05 0
1.95 0 0
2 0 0
1.95 0.05 0
2 0.05 0
0 0.05 0
0.05 0.05 0
0 0.1 0
0.05 0.1 0
0.05 0.05 0
0.1 0.05 0
0.05 0.1 0
0.1 0.1 0
0.1 0.05 0
0.15 0.05 0
0.1 0.1 0
0.15 0.1 0
0.15 0.05 0
0.2 0.05 0
0.15 0.1 0
0.2 0.1 0
0.2 0.05 0
0.25 0.05 0
0.2 0.1 0
0.25 0.1 0
0.25 0.05 0
0.3 0.05 0
0.25 0.1 0
0.3 0.1 0
0.3 0.05 0
0.35 0.05 0
0.3 0.1 0
0.35 0.1 0
0.35 0.05 0
0.4 0.05 0
0.35 0.1 0
0.4 0.1 0
0.4 0.05 0
0.45 0.05 0
0.4 0.1 0
0.45 0.1 0
0.45 0.05 0
0.5 0.05 0
0.45 0.1 0
0.5 0.1 0
0.5 0.05 0
0.55 0.05 0
0.5 0.1 0
0.55 0.1 0
0.55 0.05 0
0.6 0.05 0
0.55 0.1 0
0.6 0.1 0
0.6 0.05 0
0.65 0.05 0
0.6 0.1 0
0.65 0.1 0
0.65 0.05 0
0.7 0.05 0
0.65 0.1 0
0.7 0.1 0
0.7 0.05 0
0.75 0.05 0
0.7 0.1 0
0.75 0.1 0
0.75 0.05 0
0.8 0.05 0
0.75 0.1 0
0.8 0.1 0
0.8 0.05 0
0.85 0.05 0
0.8 0.1 0
0.85 0.1 0
0.85 0.05 0
0.9 0.05 0
0.85 0.1 0
0.9 0.1 0
0.9 0.05 0
0.95 0.05 0
0.9 0.1 0
0.95 0.1 0
0.95 0.05 0
1 0.05 0
0.95 0.1 0
1 0.1 0
1 0.05 0
1.05 0.05 0
1 0.1 0
1.05 0.1 0
1.05 0.05 0
1.1 0.05 0
1.05 0.1 0
1.1 0.1 0
1.1 0.05 0
1.15 0.05 0
1.1 0.1 0
1.15 0.1 0
1.15 0.05 0
1.2 0.05 0
1.15 0.1 0
1.2 0.1 0
1.2 0.05 0
1.25 0.05 0
1.2 0.1 0
1.25 0.1 0
1.25 0.05 0
1.3 0.05 0
1.25 0.1 0
1.3 0.1 0
1.3 0.05 0
1.35 0.05 0
1.3 0.1 0
1.35 0.1 0
1.35 0.05 0
1.4 0.05 0
1.35 0.1 0
1.4 0.1 0
1.4 0.05 0
1.45 0.05 0
1.4 0.1 0
1.45 0.1 0
1.45 0.05 0
1.5 0.05 0
1.45 0.1 0
1.5 0.1 0
1.5 0.05 0
1.55 0.05 0
1.5 0.1 0
1.55 0.1 0
1.55 0.05 0
1.6 0.05 0
1.55 0.1 0
1.6 0.1 0
1.6 0.05 0
1.65 0.05 0
1.6 0.1 0
1.65 0.1 0
1.65 0.05 0
1.7 0.05 0
1.65 0.1 0
1.7 0.1 0
1.7 0.05 0
1.75 0.05 0
1.7 0.1 0
1.75 0.1 0
1.75 0.05 0
1.8 0.05 0
1.75 0.1 0
1.8 0.1 0
1.8 0.05 0
1.85 0.05 0
1.8 0.1 0
1.85 0.1 0
1.85 0.05 0
1.9 0.05 0
1.85 0.1 0
1.9 0.1 0
1.9 0.05 0
1.95 0.05 0
1.9 0.1 0
1.95 0.1 0
1.95 0.05 0
2 0.05 0
1.95 0.1 0
2 0.1 0
0 0.1 0
0.05 0.1 0
0 0.15 0
0.05 0.15 0
0.05 0.1 0
0.1 0.1 0
0.05 0.15 0
0.1 0.15 0
0.1 0.1 0
0.15 0.1 0
0.1 0.15 0
0.15 0.15 0
0.15 0.1 0
0.2 0.1 0
0.15 0.15 0
0.2 0.15 0
0.2 0.1 0
0.25 0.1 0
0.2 0.15 0
0.25 0.15 0
0.25 0.1 0
0.3 0.1 0
0.25 0.15 0
0.3 0.15 0
0.3 0.1 0
0.35 0.1 0
0.3 0.15 0
0.35 0.15 0
0.35 0.1 0
0.4 0.1 0
0.35 0.15 0
0.4 0.15 0
0.4 0.1 0
0.45 0.1 0
0.4 0.15 0
0.45 0.15 0
0.45 0.1 0
0.5 0.1 0
0.45 0.15 0
0.5 0.15 0
0.5 0.1 0
0.55 0.1 0
0.5 0.15 0
0.55 0.15 0
0.55 0.1 0
0.6 0.1 0
0.55 0.15 0
0.6 0.15 0
0.6 0.1 0
0.65 0.1 0
0.6 0.15 0
0.65 0.15 0
0.65 0.1 0
0.7 0.1 0
0.65 0.15 0
0.7 0.15 0
0.7 0.1 0
0.75 0.1 0
0.7 0.15 0
0.75 0.15 0
0.75 0.1 0
0.8 0.1 0
0.75 0.15 0
0.8 0.15 0
0.8 0.1 0
0.85 0.1 0
0.8 0.15 0
0.85 0.15 0
0.85 0.1 0
0.9 0.1 0
0.85 0.15 0
0.9 0.15 0
0.9 0.1 0
0.95 0.1 0
0.9 0.15 0
0.95 0.15 0
0.95 0.1 0
1 0.1 0
0.95 0.15 0
1 0.15 0
1 0.1 0
1.05 0.1 0
1 0.15 0
1.05 0.15 0
1.05 0.1 0
1.1 0.1 0
1.05 0.15 0
1.1 0.15 0
1.1 0.1 0
1.15 0.1 0
1.1 0.15 0
1.15 0.15 0
1.15 0.1 0
1.2 0.1 0
1.15 0.15 0
1.2 0.15 0
1.2 0.1 0
1.25 0.1 0
1.2 0.15 0
1.25 0.15 0
1.25 0.1 0
1.3 0.1 0
1.25 0.15 0
1.3 0.15 0
1.3 0.1 0
1.35 0.1 0
1.3 0.15 0
1.35 0.15 0
1.35 0.1 0
1.4 0.1 0
1.35 0.15 0
1.4 0.15 0
1.4 0.1 0
1.45 0.1 0
1.4 0.15 0
1.45 0.15 0
1.45 0.1 0
1.5 0.1 0
1.45 0.15 0
1.5 0.15 0
1.5 0.1 0
1.55 0.1 0
1.5 0.15 0
1.55 0.15 0
1.55 0.1 0
1.6 0.1 0
1.55 0.15 0
1.6 0.15 0
1.6 0.1 0
1.65 0.1 0
1.6 0.15 0
1.65 0.15 0
1.65 0.1 0
1.7 0.1 0
1.65 0.15 0
1.7 0.15 0
1.7 0.1 0
1.75 0.1 0
1.7 0.15 0
1.75 0.15 0
1.75 0.1 0
1.8 0.1 0
1.75 0.15 0
1.8 0.15 0
1.8 0.1 0
1.85 0.1 0
1.8 0.15 0
1.85 0.15 0
1.85 0.1 0
1.9 0.1 0
1.85 0.15 0
1.9 0.15 0
1.9 0.1 0
1.95 0.1 0
1.9 0.15 0
1.95 0.15 0
1.95 0.1 0
2 0.1 0
1.95 0.15 0
2 0.15 0
0 0.15 0
0.05 0.15 0
0 0.2 0
0.05 0.2 0
0.05 0.15 0
0.1 0.15 0
0.05 0.2 0
0.1 0.2 0
0.1 0.15 0
0.15 0.15 0
0.1 0.2 0
0.15 0.2 0
0.15 0.15 0
0.2 0.15 0
0.15 0.2 0
0.2 0.2 0
0.2 0.15 0
0.25 0.15 0
0.2 0.2 0
0.25 0.2 0
0.25 0.15 0
0.3 0.15 0
0.25 0.2 0
0.3 0.2 0
0.3 0.15 0
0.35 0.15 0
0.3 0.2 0
0.35 0.2 0
0.35 0.15 0
0.4 0.15 0
0.35 0.2 0
0.4 0.2 0
0.4 0.15 0
0.45 0.15 0
0.4 0.2 0
0.45 0.2 0
0.45 0.15 0
0.5 0.15 0
0.45 0.2 0
0.5 0.2 0
0.5 0.15 0
0.55 0.15 0
0.5 0.2 0
0.55 0.2 0
0.55 0.15 0
0.6 0.15 0
0.55 0.2 0
0.6 0.2 0
0.6 0.15 0
0.65 0.15 0
0.6 0.2 0
0.65 0.2 0
0.65 0.15 0
0.7 0.15 0
0.65 0.2 0
0.7 0.2 0
0.7 0.15 0
0.75 0.15 0
0.7 0.2 0
0.75 0.2 0
0.75 0.15 0
0.8 0.15 0
0.75 0.2 0
0.8 0.2 0
0.8 0.15 0
0.85 0.15 0
0.8 0.2 0
0.85 0.2 0
0.85 0.15 0
0.9 0.15 0
0.85 0.2 0
0.9 0.2 0
0.9 0.15 0
0.95 0.15 0
0.9 0.2 0
0.95 0.2 0
0.95 0.15 0
1 0.15 0
0.95 0.2 0
1 0.2 0
1 0.15 0
1.05 0.15 0
1 0.2 0
1.05 0.2 0
1.05 0.15 0
1.1 0.15 0
1.05 0.2 0
1.1 0.2 0
1.1 0.15 0
1.15 0.15 0
1.1 0.2 0
1.15 0.2 0
1.15 0.15 0
1.2 0.15 0
1.15 0.2 0
1.2 0.2 0
1.2 0.15 0
1.25 0.15 0
1.2 0.2 0
1.25 0.2 0
1.25 0.15 0
1.3 0.15 0
1.25 0.2 0
1.3 0.2 0
1.3 0.15 0
1.35 0.15 0
1.3 0.2 0
1.35 0.2 0
1.35 0.15 0
1.4 0.15 0
1.35 0.2 0
1.4 0.2 0
1.4 0.15 0
1.45 0.15 0
1.4 0.2 0
1.45 0.2 0
1.45 0.15 0
1.5 0.15 0
1.45 0.2 0
1.5 0.2 0
1.5 0.15 0
1.55 0.15 0
1.5 0.2 0
1.55 0.2 0
1.55 0.15 0
1.6 0.15 0
1.55 0.2 0
1.6 0.2 0
1.6 0.15 0
1.65 0.15 0
1.6 0.2 0
1.65 0.2 0
1.65 0.15 0
1.7 0.15 0
1.65 0.2 0
1.7 0.2 0
1.7 0.15 0
1.75 0.15 0
1.7 0.2 0
1.75 0.2 0
1.75 0.15 0
1.8 0.15 0
1.75 0.2 0
1.8 0.2 0
1.8 0.15 0
1.85 0.15 0
1.8 0.2 0
1.85 0.2 0
1.85 0.15 0
1.9 0.15 0
1.85 0.2 0
1.9 0.2 0
1.9 0.15 0
1.95 0.15 0
1.9 0.2 0
1.95 0.2 0
1.95 0.15 0
2 0.15 0
1.95 0.2 0
2 0.2 0
0 0.2 0
0.05 0.2 0
0 0.25 0
0.05 0.25 0
0.05 0.2 0
0.1 0.2 0
0.05 0.25 0
0.1 0.25 0
0.1 0.2 0
0.15 0.2 0
0.1 0.25 0
0.15 0.25 0
0.15 0.2 0
0.2 0.2 0
0.15 0.25 0
0.2 0.25 0
0.2 0.2 0
0.25 0.2 0
0.2 0.25 0
0.25 0.25 0
0.25 0.2 0
0.3 0.2 0
0.25 0.25 0
0.3 0.25 0
0.3 0.2 0
0.35 0.2 0
0.3 0.25 0
0.35 0.25 0
0.35 0.2 0
0.4 0.2 0
0.35 0.25 0
0.4 0.25 0
0.4 0.2 0
0.45 0.2 0
0.4 0.25 0
0.45 0.25 0
0.45 0.2 0
0.5 0.2 0
0.45 0.25 0
0.5 0.25 0
0.5 0.2 0
0.55 0.2 0
0.5 0.25 0
0.55 0.25 0
0.55 0.2 0
0.6 0.2 0
0.55 0.25 0
0.6 0.25 0
0.6 0.2 0
0.65 0.2 0
0.6 0.25 0
0.65 0.25 0
0.65 0.2 0
0.7 0.2 0
0.65 0.25 0
0.7 0.25 0
0.7 0.2 0
0.75 0.2 0
0.7 0.25 0
0.75 0.25 0
0.75 0.2 0
0.8 0.2 0
0.75 0.25 0
0.8 0.25 0
0.8 0.2 0
0.85 0.2 0
0.8 0.25 0
0.85 0.25 0
0.85 0.2 0
0.9 0.2 0
0.85 0.25 0
0.9 0.25 0
0.9 0.2 0
0.95 0.2 0
0.9 0.25 0
0.95 0.25 0
0.95 0.2 0
1 0.2 0
0.95 0.25 0
1 0.25 0
1 0.2 0
1.05 0.2 0
1 0.25 0
1.05 0.25 0
1.05 0.2 0
1.1 0.2 0
1.05 0.25 0
1.1 0.25 0
1.1 0.2 0
1.15 0.2 0
1.1 0.25 0
1.15 0.25 0
1.15 0.2 0
1.2 0.2 0
1.15 0.25 0
1.2 0.25 0
1.2 0.2 0
1.25 0.2 0
1.2 0.25 0
1.25 0.25 0
1.25 0.2 0
1.3 0.2 0
1.25 0.25 0
1.3 0.25 0
1.3 0.2 0
1.35 0.2 0
1.3 0.25 0
1.35 0.25 0
1.35 0.2 0
1.4 0.2 0
1.35 0.25 0
1.4 0.25 0
1.4 0.2 0
1.45 0.2 0
1.4 0.25 0
1.45 0.25 0
1.45 0.2 0
1.5 0.2 0
1.45 0.25 0
1.5 0.25 0
1.5 0.2 0
1.55 0.2 0
1.5 0.25 0
1.55 0.25 0
1.55 0.2 0
1.6 0.2 0
1.55 0.25 0
1.6 0.25 0
1.6 0.2 0
1.65 0.2 0
1.6 0.25 0
1.65 0.25 0
1.65 0.2 0
1.7 0.2 0
1.65 0.25 0
1.7 0.25 0
1.7 0.2 0
1.75 0.2 0
1.7 0.25 0
1.75 0.25 0
1.75 0.2 0
1.8 0.2 0
1.75 0.25 0
1.8 0.25 0
1.8 0.2 0
1.85 0.2 0
1.8 0.25 0
1.85 0.25 0
1.85 0.2 0
1.9 0.2 0
1.85 0.25 0
1.9 0.25 0
1.9 0.2 0
1.95 0.2 0
1.9 0.25 0
1.95 0.25 0
1.95 0.2 0
2 0.2 0
1.95 0.25 0
2 0.25 0
0 0.25 0
0.05 0.25 0
0 0.3 0
0.05 0.3 0
0.05 0.25 0
0.1 0.25 0
0.05 0.3 0
0.1 0.3 0
0.1 0.25 0
0.15 0.25 0
0.1 0.3 0
0.15 0.3 0
0.15 0.25 0
0.2 0.25 0
0.15 0.3 0
0.2 0.3 0
0.2 0.25 0
0.25 0.25 0
0.2 0.3 0
0.25 0.3 0
0.25 0.25 0
0.3 0.25 0
0.25 0.3 0
0.3 0.3 0
0.3 0.25 0
0.35 0.25 0
0.3 0.3 0
0.35 0.3 0
0.35 0.25 0
0.4 0.25 0
0.35 0.3 0
0.4 0.3 0
0.4 0.25 0
0.45 0.25 0
0.4 0.3 0
0.45 0.3 0
0.45 0.25 0
0.5 0.25 0
0.45 0.3 0
0.5 0.3 0
0.5 0.25 0
0.55 0.25 0
0.5 0.3 0
0.55 0.3 0
0.55 0.25 0
0.6 0.25 0
0.55 0.3 0
0.6 0.3 0
0.6 0.25 0
0.65 0.25 0
0.6 0.3 0
0.65 0.3 0
0.65 0.25 0
0.7 0.25 0
0.65 0.3 0
0.7 0.3 0
0.7 0.25 0
0.75 0.25 0
0.7 0.3 0
0.75 0.3 0
0.75 0.25 0
0.8 0.25 0
0.75 0.3 0
0.8 0.3 0
0.8 0.25 0
0.85 0.25 0
0.8 0.3 0
0.85 0.3 0
0.85 0.25 0
0.9 0.25 0
0.85 0.3 0
0.9 0.3 0
0.9 0.25 0
0.95 0.25 0
0.9 0.3 0
0.95 0.3 0
0.95 0.25 0
1 0.25 0
0.95 0.3 0
1 0.3 0
1 0.25 0
1.05 0.25 0
1 0.3 0
1.05 0.3 0
1.05 0.25 0
1.1 0.25 0
1.05 0.3 0
1.1 0.3 0
1.1 0.25 0
1.15 0.25 0
1.1 0.3 0
1.15 0.3 0
1.15 0.25 0
1.2 0.25 0
1.15 0.3 0
1.2 0.3 0
1.2 0.25 0
1.25 0.25 0
1.2 0.3 0
1.25 0.3 0
1.25 0.25 0
1.3 0.25 0
1.25 0.3 0
1.3 0.3 0
1.3 0.25 0
1.35 0.25 0
1.3 0.3 0
1.35 0.3 0
1.35 0.25 0
1.4 0.25 0
1.35 0.3 0
1.4 0.3 0
1.4 0.25 0
1.45 0.25 0
1.4 0.3 0
1.45 0.3 0
1.45 0.25 0
1.5 0.25 0
[...]
POINT_DATA 3200
SCALARS x_displacement double 1
LOOKUP_TABLE default
0 -1.73821 0 -0.999556 -1.73821 -2.98973 -0.999556 -2.04445 -2.98973 -3.99349 -2.04445 -2.91584 -3.99349 -4.83296 -2.91584 -3.65887 -4.83296 -5.59069 -3.65887 -4.32052 -5.59069 -6.33942 -4.32052 -4.94979 -6.33942 -7.10486 -4.94979 -5.59981 -7.10486 -7.88739 -5.59981 -6.28484 -7.88739 -8.68182 -6.28484 -6.99488 -8.68182 -9.48118 -6.99488 -7.71821 -9.48118 -10.277 -7.71821 -8.44683 -10.277 -11.0622 -8.44683 -9.17705 -11.0622 -11.8343 -9.17705 -9.90658 -11.8343 -12.5949 -9.90658 -10.6333 -12.5949 -13.348 -10.6333 -11.354 -13.348 -14.0981 -11.354 -12.0655 -14.0981 -14.849 -12.0655 -12.7643 -14.849 -15.6031 -12.7643 -13.4474 -15.6031 -16.3605 -13.4474 -14.1117 -16.3605 -17.119 -14.1117 -14.754 -17.119 -17.8738 -14.754 -15.3702 -17.8738 -18.6149 -15.3702 -15.9554 -18.6149 -19.3209 -15.9554 -16.5055 -19.3209 -19.9486 -16.5055 -17.0174 -19.9486 -20.4424 -17.0174 -17.4877 -20.4424 -20.8033 -17.4877 -17.9512 -20.8033 -21.1284 -17.9512 -18.4978 -21.1284 -21.6573 -18.4978 -19.0447 -21.6573 -22.2917 -19.0447 -19.3929 -22.2917 -22.1312 -19.3929 -19.8079 -22.1312 -22.2044 -19.8079 -20.2659 -22.2044 -23.3556 -20.2659 -20.011 -23.3556 -23.7313 -20.011 -20.428 -23.7313 -23.8749 -20.428 -20.7494 -23.8749 -23.9773 -20.7494 -20.8818 -23.9773 -23.9781 -20.8818 -20.9921 -23.9781 -23.9458 -20.9921 -21.0491 -23.9458 -23.9038 -21.0491 -21.0711 -23.9038 -23.8744 -21.0711 -21.0795 -23.8744 -23.8669 -21.0795 -21.0819 0 -0.999556 0 -0.823678 -0.999556 -2.04445 -0.823678 -1.46437 -2.04445 -2.91584 -1.46437 -2.08577 -2.91584 -3.65887 -2.08577 -2.68707 -3.65887 -4.32052 -2.68707 -3.18717 -4.32052 -4.94979 -3.18717 -3.59225 -4.94979 -5.59981 -3.59225 -4.04163 -5.59981 -6.28484 -4.04163 -4.62669 -6.28484 -6.99488 -4.62669 -5.28276 -6.99488 -7.71821 -5.28276 -5.94767 -7.71821 -8.44683 -5.94767 -6.61915 -8.44683 -9.17705 -6.61915 -7.29932 -9.17705 -9.90658 -7.29932 -7.99237 -9.90658 -10.6333 -7.99237 -8.69188 -10.6333 -11.354 -8.69188 -9.38766 -11.354 -12.0655 -9.38766 -10.0683 -12.0655 -12.7643 -10.0683 -10.7233 -12.7643 -13.4474 -10.7233 -11.3443 -13.4474 -14.1117 -11.3443 -11.9266 -14.1117 -14.754 -11.9266 -12.4672 -14.754 -15.3702 -12.4672 -12.9653 -15.3702 -15.9554 -12.9653 -13.4226 -15.9554 -16.5055 -13.4226 -13.8458 -16.5055 -17.0174 -13.8458 -14.2643 -17.0174 -17.4877 -14.2643 -14.7284 -17.4877 -17.9512 -14.7284 -15.2192 -17.9512 -18.4978 -15.2192 -15.6507 -18.4978 -19.0447 -15.6507 -16.063 -19.0447 -19.3929 -16.063 -16.503 -19.3929 -19.8079 -16.503 -16.969 -19.8079 -20.2659 -16.969 -17.2682 -20.2659 -20.011 -17.2682 -17.558 -20.011 -20.428 -17.558 -17.765 -20.428 -20.7494 -17.765 -17.6106 -20.7494 -20.8818 -17.6106 -17.964 -20.8818 -20.9921 -17.964 -18.1316 -20.9921 -21.0491 -18.1316 -18.2129 -21.0491 -21.0711 -18.2129 -18.289 -21.0711 -21.0795 -18.289 -18.3094 -21.0795 -21.0819 -18.3094 -18.3191 0 -0.823678 0 -0.559525 -0.823678 -1.46437 -0.559525 -0.811987 -1.46437 -2.08577 -0.811987 -1.4177 -2.08577 -2.68707 -1.4177 -1.9394 -2.68707 -3.18717 -1.9394 -2.34885 -3.18717 -3.59225 -2.34885 -2.72698 -3.59225 -4.04163 -2.72698 -3.12684 -4.04163 -4.62669 -3.12684 -3.48224 -4.62669 -5.28276 -3.48224 -3.89229 -5.28276 -5.94767 -3.89229 -4.38884 -5.94767 -6.61915 -4.38884 -4.87142 -6.61915 -7.29932 -4.87142 -5.49296 -7.29932 -7.99237 -5.49296 -6.21098 -7.99237 -8.69188 -6.21098 -6.98355 -8.69188 -9.38766 -6.98355 -7.77129 -9.38766 -10.0683 -7.77129 -8.52598 -10.0683 -10.7233 -8.52598 -9.2151 -10.7233 -11.3443 -9.2151 -9.8297 -11.3443 -11.9266 -9.8297 -10.3709 -11.9266 -12.4672 -10.3709 -10.8372 -12.4672 -12.9653 -10.8372 -11.2202 -12.9653 -13.4226 -11.2202 -11.5096 -13.4226 -13.8458 -11.5096 -11.7166 -13.8458 -14.2643 -11.7166 -11.8837 -14.2643 -14.7284 -11.8837 -12.0599 -14.7284 -15.2192 -12.0599 -12.2958 -15.2192 -15.6507 -12.2958 -12.6553 -15.6507 -16.063 -12.6553 -13.1609 -16.063 -16.503 -13.1609 -13.5783 -16.503 -16.969 -13.5783 -13.97 -16.969 -17.2682 -13.97 -14.3881 -17.2682 -17.558 -14.3881 -14.7457 -17.558 -17.765 -14.7457 -15.0432 -17.765 -17.6106 -15.0432 -15.3307 -17.6106 -17.964 -15.3307 -15.2292 -17.964 -18.1316 -15.2292 -15.3405 -18.1316 -18.2129 -15.3405 -15.5324 -18.2129 -18.289 -15.5324 -15.589 -18.289 -18.3094 -15.589 -15.6278 -18.3094 -18.3191 -15.6278 -15.6372 0 -0.559525 0 0.101764 -0.559525 -0.811987 0.101764 -0.305674 -0.811987 -1.4177 -0.305674 -0.885979 -1.4177 -1.9394 -0.885979 -1.24963 -1.9394 -2.34885 -1.24963 -1.73012 -2.34885 -2.72698 -1.73012 -2.11348 -2.72698 -3.12684 -2.11348 -2.49019 -3.12684 -3.48224 -2.49019 -2.89875 -3.48224 -3.89229 -2.89875 -3.39082 -3.89229 -4.38884 -3.39082 -3.8449 -4.38884 -4.87142 -3.8449 -4.38795 -4.87142 -5.49296 -4.38795 -5.10626 -5.49296 -6.21098 -5.10626 -5.88867 -6.21098 -6.98355 -5.88867 -6.68888 -6.98355 -7.77129 -6.68888 -7.39994 -7.77129 -8.52598 -7.39994 -8.01211 -8.52598 -9.2151 -8.01211 -8.53211 -9.2151 -9.8297 -8.53211 -8.9672 -9.8297 -10.3709 -8.9672 -9.31984 -10.3709 -10.8372 -9.31984 -9.58048 -10.8372 -11.2202 -9.58048 -9.73831 -11.2202 -11.5096 -9.73831 -9.80246 -11.5096 -11.7166 -9.80246 -9.80434 -11.7166 -11.8837 -9.80434 -9.77698 -11.8837 -12.0599 -9.77698 -9.75135 -12.0599 -12.2958 -9.75135 -9.75471 -12.2958 -12.6553 -9.75471 -9.89076 -12.6553 -13.1609 -9.89076 -10.2035 -13.1609 -13.5783 -10.2035 -10.58 -13.5783 -13.97 -10.58 -11.1118 -13.97 -14.3881 -11.1118 -11.532 -14.3881 -14.7457 -11.532 -11.9111 -14.7457 -15.0432 -11.9111 -12.3166 -15.0432 -15.3307 -12.3166 -12.5558 -15.3307 -15.2292 -12.5558 -12.7446 -15.2292 -15.3405 -12.7446 -12.9233 -15.3405 -15.5324 -12.9233 -12.7246 -15.5324 -15.589 -12.7246 -13.0606 -15.589 -15.6278 -13.0606 -13.1131 -15.6278 -15.6372 -13.1131 -13.0489 0 0.101764 0 -0.356678 0.101764 -0.305674 -0.356678 -1.04723 -0.305674 -0.885979 -1.04723 -0.254743 -0.885979 -1.24963 -0.254743 -0.757526 -1.24963 -1.73012 -0.757526 -1.12307 -1.73012 -2.11348 -1.12307 -1.43653 -2.11348 -2.49019 -1.43653 -1.87425 -2.49019 -2.89875 -1.87425 -2.2739 -2.89875 -3.39082 -2.2739 -2.68153 -3.39082 -3.8449 -2.68153 -3.1272 -3.8449 -4.38795 -3.1272 -3.65132 -4.38795 -5.10626 -3.65132 -4.18168 -5.10626 -5.88867 -4.18168 -4.78094 -5.88867 -6.68888 -4.78094 -5.48878 -6.68888 -7.39994 -5.48878 -6.27073 -7.39994 -8.01211 -6.27073 -6.98891 -8.01211 -8.53211 -6.98891 -7.51978 -8.53211 -8.9672 -7.51978 -7.87988 -8.9672 -9.31984 -7.87988 -8.09482 -9.31984 -9.58048 -8.09482 -8.18306 -9.58048 -9.73831 -8.18306 -8.16983 -9.73831 -9.80246 -8.16983 -8.08891 -9.80246 -9.80434 -8.08891 -7.96857 -9.80434 -9.77698 -7.96857 -7.82697 -9.77698 -9.75135 -7.82697 -7.68165 -9.75135 -9.75471 -7.68165 -7.56825 -9.75471 -9.89076 -7.56825 -7.51169 -9.89076 -10.2035 -7.51169 -7.52353 -10.2035 -10.58 -7.52353 -7.82043 -10.58 -11.1118 -7.82043 -8.28589 -11.1118 -11.532 -8.28589 -8.73981 -11.532 -11.9111 -8.73981 -9.18428 -11.9111 -12.3166 -9.18428 -9.57037 -12.3166 -12.5558 -9.57037 -9.94349 -12.5558 -12.7446 -9.94349 -10.2936 -12.7446 -12.9233 -10.2936 -10.6125 -12.9233 -12.7246 -10.6125 -10.9345 -12.7246 -13.0606 -10.9345 -10.6723 -13.0606 -13.1131 -10.6723 -10.7514 -13.1131 -13.0489 -10.7514 -10.8914 0 -0.356678 0 -0.164319 -0.356678 -1.04723 -0.164319 -0.25513 -1.04723 -0.254743 -0.25513 -0.687292 -0.254743 -0.757526 -0.687292 -0.575199 -0.757526 -1.12307 -0.575199 -0.484162 -1.12307 -1.43653 -0.484162 -0.881329 -1.43653 -1.87425 -0.881329 -1.22058 -1.87425 -2.2739 -1.22058 -1.57273 -2.2739 -2.68153 -1.57273 -1.98077 -2.68153 -3.1272 -1.98077 -2.36927 -3.1272 -3.65132 -2.36927 -2.77651 -3.65132 -4.18168 -2.77651 -3.22846 -4.18168 -4.78094 -3.22846 -3.72284 -4.78094 -5.48878 -3.72284 -4.22744 -5.48878 -6.27073 -4.22744 -4.78904 -6.27073 -6.98891 -4.78904 -5.44288 -6.98891 -7.51978 -5.44288 -6.07783 -7.51978 -7.87988 -6.07783 -6.48207 -7.87988 -8.09482 -6.48207 -6.63046 -8.09482 -8.18306 -6.63046 -6.61594 -8.18306 -8.16983 -6.61594 -6.51366 -8.16983 -8.08891 -6.51366 -6.3619 -8.08891 -7.96857 -6.3619 -6.17864 -7.96857 -7.82697 -6.17864 -5.9762 -7.82697 -7.68165 -5.9762 -5.77313 -7.68165 -7.56825 -5.77313 -5.58988 -7.56825 -7.51169 -5.58988 -5.44692 -7.51169 -7.52353 -5.44692 -5.40038 -7.52353 -7.82043 -5.40038 -5.42438 -7.82043 -8.28589 -5.42438 -5.56844 -8.28589 -8.73981 -5.56844 -6.00369 -8.73981 -9.18428 -6.00369 -6.43927 -9.18428 -9.57037 -6.43927 -7.01983 -9.57037 -9.94349 -7.01983 -7.45471 -9.94349 -10.2936 -7.45471 -7.84522 -10.2936 -10.6125 -7.84522 -8.27696 -10.6125 -10.9345 -8.27696 -8.55145 -10.9345 -10.6723 -8.55145 -8.86106 -10.6723 -10.7514 -8.86106 -9.27431 -10.7514 -10.8914 -9.27431 -8.74622 0 -0.164319 0 -0.0595544 -0.164319 -0.25513 -0.0595544 -0.122679 -0.25513 -0.687292 -0.122679 -0.0346856 -0.687292 -0.575199 -0.0346856 0.213 -0.575199 -0.484162 0.213 -0.654736 -0.484162 -0.881329 -0.654736 -0.40861 -0.881329 -1.22058 -0.40861 -0.576976 -1.22058 -1.57273 -0.576976 -0.925928 -1.57273 -1.98077 -0.925928 -1.21706 -1.98077 -2.36927 -1.21706 -1.53392 -2.36927 -2.77651 -1.53392 -1.89635 -2.77651 -3.22846 -1.89635 -2.25995 -3.22846 -3.72284 -2.25995 -2.63441 -3.72284 -4.22744 -2.63441 -3.03941 -4.22744 -4.78904 -3.03941 -3.47255 -4.78904 -5.44288 -3.47255 -3.94417 -5.44288 -6.07783 -3.94417 -4.45533 -6.07783 -6.48207 -4.45533 -4.85658 -6.48207 -6.63046 -4.85658 -4.98815 -6.63046 -6.61594 -4.98815 -4.94425 -6.61594 -6.51366 -4.94425 -4.81898 -6.51366 -6.3619 -4.81898 -4.64969 -6.3619 -6.17864 -4.64969 -4.45522 -6.17864 -5.9762 -4.45522 -4.2559 -5.9762 -5.77313 -4.2559 -4.06852 -5.77313 -5.58988 -4.06852 -3.88713 -5.58988 -5.44692 -3.88713 -3.70547 -5.44692 -5.40038 -3.70547 -3.52873 -5.40038 -5.42438 -3.52873 -3.35388 -5.42438 -5.56844 -3.35388 -3.27554 -5.56844 -6.00369 -3.27554 -3.25591 -6.00369 -6.43927 -3.25591 -3.87354 -6.43927 -7.01983 -3.87354 -4.60208 -7.01983 -7.45471 -4.60208 -5.06085 -7.45471 -7.84522 -5.06085 -5.49959 -7.84522 -8.27696 -5.49959 -5.8889 -8.27696 -8.55145 -5.8889 -6.29131 -8.55145 -8.86106 -6.29131 -6.73605 -8.86106 -9.27431 -6.73605 -7.13594 -9.27431 -8.74622 -7.13594 -7.68146 0 -0.0595544 0 -0.0242231 -0.0595544 -0.122679 -0.0242231 -0.00437296 -0.122679 -0.0346856 -0.00437296 0.0214566 -0.0346856 0.213 0.0214566 -0.041595 0.213 -0.654736 -0.041595 0.0749102 -0.654736 -0.40861 0.0749102 0.127563 -0.40861 -0.576976 0.127563 -0.33294 -0.576976 -0.925928 -0.33294 -0.268704 -0.925928 -1.21706 -0.268704 -0.489194 -1.21706 -1.53392 -0.489194 -0.754526 -1.53392 -1.89635 -0.754526 -0.999254 -1.89635 -2.25995 -0.999254 -1.26446 -2.25995 -2.63441 -1.26446 -1.57466 -2.63441 -3.03941 -1.57466 -1.90499 -3.03941 -3.47255 -1.90499 -2.23182 -3.47255 -3.94417 -2.23182 -2.57058 -3.94417 -4.45533 -2.57058 -2.91666 -4.45533 -4.85658 -2.91666 -3.18998 -4.85658 -4.98815 -3.18998 -3.28807 -4.98815 -4.94425 -3.28807 -3.24775 -4.94425 -4.81898 -3.24775 -3.1377 -4.81898 -4.64969 -3.1377 -2.99466 -4.64969 -4.45522 -2.99466 -2.84634 -4.45522 -4.2559 -2.84634 -2.71345 -4.2559 -4.06852 -2.71345 -2.58752 -4.06852 -3.88713 -2.58752 -2.43825 -3.88713 -3.70547 -2.43825 -2.2448 -3.70547 -3.52873 -2.2448 -1.99943 -3.52873 -3.35388 -1.99943 -1.73617 -3.35388 -3.27554 -1.73617 -1.47533 -3.27554 -3.25591 -1.47533 -1.34096 -3.25591 -3.87354 -1.34096 -1.37044 -3.87354 -4.60208 -1.37044 -2.24486 -4.60208 -5.06085 -2.24486 -2.74584 -5.06085 -5.49959 -2.74584 -3.13983 -5.49959 -5.8889 -3.13983 -3.66566 -5.8889 -6.29131 -3.66566 -4.07138 -6.29131 -6.73605 -4.07138 -4.46941 -6.73605 -7.13594 -4.46941 -4.924 -7.13594 -7.68146 -4.924 -5.24245 0 -0.0242231 0 -0.00310426 -0.0242231 -0.00437296 -0.00310426 0.00549369 -0.00437296 0.0214566 0.00549369 0.0067292 0.0214566 -0.041595 0.0067292 0.0361412 -0.041595 0.0749102 0.0361412 0.0809414 0.0749102 0.127563 0.0809414 0.225099 0.127563 -0.33294 0.225099 0.771226 -0.33294 -0.268704 0.771226 0.0991678 -0.268704 -0.489194 0.0991678 -0.0137487 -0.489194 -0.754526 -0.0137487 -0.101303 -0.754526 -0.999254 -0.101303 -0.257171 -0.999254 -1.26446 -0.257171 -0.449344 -1.26446 -1.57466 -0.449344 -0.652704 -1.57466 -1.90499 -0.652704 -0.856705 -1.90499 -2.23182 -0.856705 -1.06174 -2.23182 -2.57058 -1.06174 -1.26447 -2.57058 -2.91666 -1.26447 -1.44689 -2.91666 -3.18998 -1.44689 -1.57384 -3.18998 -3.28807 -1.57384 -1.6191 -3.28807 -3.24775 -1.6191 -1.59205 -3.24775 -3.1377 -1.59205 -1.52358 -3.1377 -2.99466 -1.52358 -1.44468 -2.99466 -2.84634 -1.44468 -1.3775 -2.84634 -2.71345 -1.3775 -1.32244 -2.71345 -2.58752 -1.32244 -1.2611 -2.58752 -2.43825 -1.2611 -1.17293 -2.43825 -2.2448 -1.17293 -1.04021 -2.2448 -1.99943 -1.04021 -0.855536 -1.99943 -1.73617 -0.855536 -0.627911 -1.73617 -1.47533 -0.627911 -0.382447 -1.47533 -1.34096 -0.382447 -0.135605 -1.34096 -1.37044 -0.135605 0.0633053 -1.37044 -2.24486 0.0633053 0.166501 -2.24486 -2.74584 0.166501 -0.392075 -2.74584 -3.13983 -0.392075 -1.08342 -3.13983 -3.66566 -1.08342 -1.55806 -3.66566 -4.07138 -1.55806 -1.89698 -4.07138 -4.46941 -1.89698 -2.24682 -4.46941 -4.924 -2.24682 -2.59598 -4.924 -5.24245 -2.59598 -2.6794 0 -0.00310426 0 3.51205e-10 -0.00310426 0.00549369 3.51205e-10 -2.1284e-10 0.00549369 0.0067292 -2.1284e-10 3.313e-10 0.0067292 0.0361412 3.313e-10 6.68706e-10 0.0361412 0.0809414 6.68706e-10 3.16819e-10 0.0809414 0.225099 3.16819e-10 -3.60047e-10 0.225099 0.771226 -3.60047e-10 3.89425e-10 0.771226 0.0991678 3.89425e-10 -2.38412e-10 0.0991678 -0.0137487 -2.38412e-10 -1.72277e-11 -0.0137487 -0.101303 -1.72277e-11 3.64146e-13 -0.101303 -0.257171 3.64146e-13 7.82418e-13 -0.257171 -0.449344 7.82418e-13 1.33249e-12 -0.449344 -0.652704 1.33249e-12 1.84453e-12 -0.652704 -0.856705 1.84453e-12 3.46608e-12 -0.856705 -1.06174 3.46608e-12 4.48257e-12 -1.06174 -1.26447 4.48257e-12 5.21532e-12 -1.26447 -1.44689 5.21532e-12 5.5064e-12 -1.44689 -1.57384 5.5064e-12 5.56807e-12 -1.57384 -1.6191 5.56807e-12 5.14858e-12 -1.6191 -1.59205 5.14858e-12 4.29152e-12 -1.59205 -1.52358 4.29152e-12 3.46265e-12 -1.52358 -1.44468 3.46265e-12 2.71397e-12 -1.44468 -1.3775 2.71397e-12 3.98175e-12 -1.3775 -1.32244 3.98175e-12 3.89993e-12 -1.32244 -1.2611 3.89993e-12 5.36732e-12 -1.2611 -1.17293 5.36732e-12 6.69538e-12 -1.17293 -1.04021 6.69538e-12 7.61928e-12 -1.04021 -0.855536 7.61928e-12 1.26615e-11 -0.855536 -0.627911 1.26615e-11 2.03439e-11 -0.627911 -0.382447 2.03439e-11 2.47958e-11 -0.382447 -0.135605 2.47958e-11 3.86388e-11 -0.135605 0.0633053 3.86388e-11 2.81536e-11 0.0633053 0.166501 2.81536e-11 1.50941e-10 0.166501 -0.392075 1.50941e-10 7.30916e-11 -0.392075 -1.08342 7.30916e-11 8.55862e-12 -1.08342 -1.55806 8.55862e-12 6.59138e-12 -1.55806 -1.89698 6.59138e-12 5.83124e-12 -1.89698 -2.24682 5.83124e-12 3.8784e-12 -2.24682 -2.59598 3.8784e-12 1.66417e-12 -2.59598 -2.6794 1.66417e-12 3.63137e-13 0 3.51205e-10 0 0.00310426 3.51205e-10 -2.1284e-10 0.00310426 -0.00549369 -2.1284e-10 3.313e-10 -0.00549369 -0.0067292 3.313e-10 6.68706e-10 -0.0067292 -0.0361412 6.68706e-10 3.16819e-10 -0.0361412 -0.0809414 3.16819e-10 -3.60047e-10 -0.0809414 -0.225099 -3.60047e-10 3.89425e-10 -0.225099 -0.771226 3.89425e-10 -2.38412e-10 -0.771226 -0.0991678 -2.38412e-10 -1.72277e-11 -0.0991678 0.0137487 -1.72277e-11 3.64146e-13 0.0137487 0.101303 3.64146e-13 7.82418e-13 0.101303 0.257171 7.82418e-13 1.33249e-12 0.257171 0.449344 1.33249e-12 1.84453e-12 0.449344 0.652704 1.84453e-12 3.46608e-12 0.652704 0.856705 3.46608e-12 4.48257e-12 0.856705 1.06174 4.48257e-12 5.21532e-12 1.06174 1.26447 5.21532e-12 5.5064e-12 1.26447 1.44689 5.5064e-12 5.56807e-12 1.44689 1.57384 5.56807e-12 5.14858e-12 1.57384 1.6191 5.14858e-12 4.29152e-12 1.6191 1.59205 4.29152e-12 3.46265e-12 1.59205 1.52358 3.46265e-12 2.71397e-12 1.52358 1.44468 2.71397e-12 3.98175e-12 1.44468 1.3775 3.98175e-12 3.89993e-12 1.3775 1.32244 3.89993e-12 5.36732e-12 1.32244 1.2611 5.36732e-12 6.69538e-12 1.2611 1.17293 6.69538e-12 7.61928e-12 1.17293 1.04021 7.61928e-12 1.26615e-11 1.04021 0.855536 1.26615e-11 2.03439e-11 0.855536 0.627911 2.03439e-11 2.47958e-11 0.627911 0.382447 2.47958e-11 3.86388e-11 0.382447 0.135605 3.86388e-11 2.81536e-11 0.135605 -0.0633053 2.81536e-11 1.50941e-10 -0.0633053 -0.166501 1.50941e-10 7.30916e-11 -0.166501 0.392075 7.30916e-11 8.55862e-12 0.392075 1.08342 8.55862e-12 6.59138e-12 1.08342 1.55806 6.59138e-12 5.83124e-12 1.55806 1.89698 5.83124e-12 3.8784e-12 1.89698 2.24682 3.8784e-12 1.66417e-12 2.24682 2.59598 1.66417e-12 3.63137e-13 2.59598 2.6794 0 0.00310426 0 0.0242231 0.00310426 -0.00549369 0.0242231 0.00437296 -0.00549369 -0.0067292 0.00437296 -0.0214566 -0.0067292 -0.0361412 -0.0214566 0.041595 -0.0361412 -0.0809414 0.041595 -0.0749102 -0.0809414 -0.225099 -0.0749102 -0.127563 -0.225099 -0.771226 -0.127563 0.33294 -0.771226 -0.0991678 0.33294 0.268704 -0.0991678 0.0137487 0.268704 0.489194 0.0137487 0.101303 0.489194 0.754526 0.101303 0.257171 0.754526 0.999254 0.257171 0.449344 0.999254 1.26446 0.449344 0.652704 1.26446 1.57466 0.652704 0.856705 1.57466 1.90499 0.856705 1.06174 1.90499 2.23182 1.06174 1.26447 2.23182 2.57058 1.26447 1.44689 2.57058 2.91666 1.44689 1.57384 2.91666 3.18998 1.57384 1.6191 3.18998 3.28807 1.6191 1.59205 3.28807 3.24775 1.59205 1.52358 3.24775 3.1377 1.52358 1.44468 3.1377 2.99466 1.44468 1.3775 2.99466 2.84634 1.3775 1.32244 2.84634 2.71345 1.32244 1.2611 2.71345 2.58752 1.2611 1.17293 2.58752 2.43825 1.17293 1.04021 2.43825 2.2448 1.04021 0.855536 2.2448 1.99943 0.855536 0.627911 1.99943 1.73617 0.627911 0.382447 1.73617 1.47533 0.382447 0.135605 1.47533 1.34096 0.135605 -0.0633053 1.34096 1.37044 -0.0633053 -0.166501 1.37044 2.24486 -0.166501 0.392075 2.24486 2.74584 0.392075 1.08342 2.74584 3.13983 1.08342 1.55806 3.13983 3.66566 1.55806 1.89698 3.66566 4.07138 1.89698 2.24682 4.07138 4.46941 2.24682 2.59598 4.46941 4.924 2.59598 2.6794 4.924 5.24245 0 0.0242231 0 0.0595544 0.0242231 0.00437296 0.0595544 0.122679 0.00437296 -0.0214566 0.122679 0.0346856 -0.0214566 0.041595 0.0346856 -0.213 0.041595 -0.0749102 -0.213 0.654736 -0.0749102 -0.127563 0.654736 0.40861 -0.127563 0.33294 0.40861 0.576976 0.33294 0.268704 0.576976 0.925928 0.268704 0.489194 0.925928 1.21706 0.489194 0.754526 1.21706 1.53392 0.754526 0.999254 1.53392 1.89635 0.999254 1.26446 1.89635 2.25995 1.26446 1.57466 2.25995 2.63441 1.57466 1.90499 2.63441 3.03941 1.90499 2.23182 3.03941 3.47255 2.23182 2.57058 3.47255 3.94417 2.57058 2.91666 3.94417 4.45533 2.91666 3.18998 4.45533 4.85658 3.18998 3.28807 4.85658 4.98815 3.28807 3.24775 4.98815 4.94425 3.24775 3.1377 4.94425 4.81898 3.1377 2.99466 4.81898 4.64969 2.99466 2.84634 4.64969 4.45522 2.84634 2.71345 4.45522 4.2559 2.71345 2.58752 4.2559 4.06852 2.58752 2.43825 4.06852 3.88713 2.43825 2.2448 3.88713 3.70547 2.2448 1.99943 3.70547 3.52873 1.99943 1.73617 3.52873 3.35388 1.73617 1.47533 3.35388 3.27554 1.47533 1.34096 3.27554 3.25591 1.34096 1.37044 3.25591 3.87354 1.37044 2.24486 3.87354 4.60208 2.24486 2.74584 4.60208 5.06085 2.74584 3.13983 5.06085 5.49959 3.13983 3.66566 5.49959 5.8889 3.66566 4.07138 5.8889 6.29131 4.07138 4.46941 6.29131 6.73605 4.46941 4.924 6.73605 7.13594 4.924 5.24245 7.13594 7.68146 0 0.0595544 0 0.164319 0.0595544 0.122679 0.164319 0.25513 0.122679 0.0346856 0.25513 0.687292 0.0346856 -0.213 0.687292 0.575199 -0.213 0.654736 0.575199 0.484162 0.654736 0.40861 0.484162 0.881329 0.40861 0.576976 0.881329 1.22058 0.576976 0.925928 1.22058 1.57273 0.925928 1.21706 1.57273 1.98077 1.21706 1.53392 1.98077 2.36927 1.53392 1.89635 2.36927 2.77651 1.89635 2.25995 2.77651 3.22846 2.25995 2.63441 3.22846 3.72284 2.63441 3.03941 3.72284 4.22744 3.03941 3.47255 4.22744 4.78904 3.47255 3.94417 4.78904 5.44288 3.94417 4.45533 5.44288 6.07783 4.45533 4.85658 6.07783 6.48207 4.85658 4.98815 6.48207 6.63046 4.98815 4.94425 6.63046 6.61594 4.94425 4.81898 6.61594 6.51366 4.81898 4.64969 6.51366 6.3619 4.64969 4.45522 6.3619 6.17864 4.45522 4.2559 6.17864 5.9762 4.2559 4.06852 5.9762 5.77313 4.06852 3.88713 5.77313 5.58988 3.88713 3.70547 5.58988 5.44692 3.70547 3.52873 5.44692 5.40038 3.52873 3.35388 5.40038 5.42438 3.35388 3.27554 5.42438 5.56844 3.27554 3.25591 5.56844 6.00369 3.25591 3.87354 6.00369 6.43927 3.87354 4.60208 6.