# vtk DataFile Version 3.0
#This file was generated by the deal.II library on 2015/8/30 at 10:13:44
ASCII
DATASET UNSTRUCTURED_GRID

POINTS 20 double
1 0 0
2 0 0
1 1 0
2 1 0
0 0 0
0.5 0 0
0 0.5 0
0.5 0.5 0
0.5 0 0
1 0 0
0.5 0.5 0
1 0.5 0
0 0.5 0
0.5 0.5 0
0 1 0
0.5 1 0
0.5 0.5 0
1 0.5 0
0.5 1 0
1 1 0

CELLS 5 25
4	0	1	3	2
4	4	5	7	6
4	8	9	11	10
4	12	13	15	14
4	16	17	19	18

CELL_TYPES 5
 9 9 9 9 9
POINT_DATA 20
SCALARS x_displacement double 1
LOOKUP_TABLE default
-61.5915 -87.002 61.5915 87.002 0 -30.009 0 8.15579e-14 -30.009 -61.5915 8.15579e-14 3.55271e-15 0 8.15579e-14 0 30.009 8.15579e-14 3.55271e-15 30.009 61.5915 
SCALARS y_displacement double 1
LOOKUP_TABLE default
-79.8694 -261.673 -79.8694 -261.673 0 -25.8902 0 -19.5464 -25.8902 -79.8694 -19.5464 -79.8694 0 -19.5464 0 -25.8902 -19.5464 -79.8694 -25.8902 -79.8694 
