# vtk DataFile Version 3.0
#This file was generated by the deal.II library on 2015/8/30 at 10:13:44
ASCII
DATASET UNSTRUCTURED_GRID

POINTS 20 double
1 0 0
2 0 0
1 1 0
2 1 0
0 0 0
0.5 0 0
0 0.5 0
0.5 0.5 0
0.5 0 0
1 0 0
0.5 0.5 0
1 0.5 0
0 0.5 0
0.5 0.5 0
0 1 0
0.5 1 0
0.5 0.5 0
1 0.5 0
0.5 1 0
1 1 0

CELLS 5 25
4	0	1	3	2
4	4	5	7	6
4	8	9	11	10
4	12	13	15	14
4	16	17	19	18

CELL_TYPES 5
 9 9 9 9 9
POINT_DATA 20
SCALARS x_displacement double 1
LOOKUP_TABLE default
-61.7305 -87.1629 61.7305 87.1629 0 -30.0691 0 7.94931e-14 -30.0691 -61.7305 7.94931e-14 1.06581e-14 0 7.94931e-14 0 30.0691 7.94931e-14 1.06581e-14 30.0691 61.7305 
SCALARS y_displacement double 1
LOOKUP_TABLE default
-80.0415 -262.168 -80.0415 -262.168 0 -25.9412 0 -19.5831 -25.9412 -80.0415 -19.5831 -80.0415 0 -19.5831 0 -25.9412 -19.5831 -80.0415 -25.9412 -80.0415 
