# vtk DataFile Version 3.0
#This file was generated by the deal.II library on 2015/9/1 at 17:12:58
ASCII
DATASET UNSTRUCTURED_GRID

POINTS 11912 double
0 0 0
0.05 0 0
0 0.05 0
0.05 0.05 0
0.05 0 0
0.1 0 0
0.05 0.05 0
0.1 0.05 0
0.1 0 0
0.15 0 0
0.1 0.05 0
0.15 0.05 0
0.15 0 0
0.2 0 0
0.15 0.05 0
0.2 0.05 0
0.2 0 0
0.25 0 0
0.2 0.05 0
0.25 0.05 0
0.25 0 0
0.3 0 0
0.25 0.05 0
0.3 0.05 0
0.3 0 0
0.35 0 0
0.3 0.05 0
0.35 0.05 0
0.35 0 0
0.4 0 0
0.35 0.05 0
0.4 0.05 0
0.4 0 0
0.45 0 0
0.4 0.05 0
0.45 0.05 0
0.45 0 0
0.5 0 0
0.45 0.05 0
0.5 0.05 0
0.5 0 0
0.55 0 0
0.5 0.05 0
0.55 0.05 0
0.55 0 0
0.6 0 0
0.55 0.05 0
0.6 0.05 0
0.6 0 0
0.65 0 0
0.6 0.05 0
0.65 0.05 0
0.65 0 0
0.7 0 0
0.65 0.05 0
0.7 0.05 0
0.7 0 0
0.75 0 0
0.7 0.05 0
0.75 0.05 0
0.75 0 0
0.8 0 0
0.75 0.05 0
0.8 0.05 0
0.8 0 0
0.85 0 0
0.8 0.05 0
0.85 0.05 0
0.85 0 0
0.9 0 0
0.85 0.05 0
0.9 0.05 0
0.9 0 0
0.95 0 0
0.9 0.05 0
0.95 0.05 0
0.95 0 0
1 0 0
0.95 0.05 0
1 0.05 0
1 0 0
1.05 0 0
1 0.05 0
1.05 0.05 0
1.05 0 0
1.1 0 0
1.05 0.05 0
1.1 0.05 0
1.1 0 0
1.15 0 0
1.1 0.05 0
1.15 0.05 0
1.15 0 0
1.2 0 0
1.15 0.05 0
1.2 0.05 0
1.2 0 0
1.25 0 0
1.2 0.05 0
1.25 0.05 0
1.25 0 0
1.3 0 0
1.25 0.05 0
1.3 0.05 0
0.1 0.05 0
0.15 0.05 0
0.1 0.1 0
0.15 0.1 0
0.15 0.05 0
0.2 0.05 0
0.15 0.1 0
0.2 0.1 0
0.2 0.05 0
0.25 0.05 0
0.2 0.1 0
0.25 0.1 0
0.25 0.05 0
0.3 0.05 0
0.25 0.1 0
0.3 0.1 0
0.2 0.1 0
0.25 0.1 0
0.2 0.15 0
0.25 0.15 0
0.25 0.1 0
0.3 0.1 0
0.25 0.15 0
0.3 0.15 0
0.85 0.45 0
0.9 0.45 0
0.85 0.5 0
0.9 0.5 0
0.9 0.45 0
0.95 0.45 0
0.9 0.5 0
0.95 0.5 0
1.45 0.45 0
1.5 0.45 0
1.45 0.5 0
1.5 0.5 0
1.9 0.45 0
1.95 0.45 0
1.9 0.5 0
1.95 0.5 0
1.95 0.45 0
2 0.45 0
1.95 0.5 0
2 0.5 0
0.65 0.5 0
0.7 0.5 0
0.65 0.55 0
0.7 0.55 0
0.85 0.5 0
0.9 0.5 0
0.85 0.55 0
0.9 0.55 0
0.9 0.5 0
0.95 0.5 0
0.9 0.55 0
0.95 0.55 0
1.9 0.5 0
1.95 0.5 0
1.9 0.55 0
1.95 0.55 0
1.95 0.5 0
2 0.5 0
1.95 0.55 0
2 0.55 0
0.2 0.85 0
0.25 0.85 0
0.2 0.9 0
0.25 0.9 0
0.25 0.85 0
0.3 0.85 0
0.25 0.9 0
0.3 0.9 0
0.1 0.9 0
0.15 0.9 0
0.1 0.95 0
0.15 0.95 0
0.15 0.9 0
0.2 0.9 0
0.15 0.95 0
0.2 0.95 0
0.2 0.9 0
0.25 0.9 0
0.2 0.95 0
0.25 0.95 0
0.25 0.9 0
0.3 0.9 0
0.25 0.95 0
0.3 0.95 0
0 0.95 0
0.05 0.95 0
0 1 0
0.05 1 0
0.05 0.95 0
0.1 0.95 0
0.05 1 0
0.1 1 0
0.1 0.95 0
0.15 0.95 0
0.1 1 0
0.15 1 0
0.15 0.95 0
0.2 0.95 0
0.15 1 0
0.2 1 0
0.2 0.95 0
0.25 0.95 0
0.2 1 0
0.25 1 0
0.25 0.95 0
0.3 0.95 0
0.25 1 0
0.3 1 0
0.3 0.95 0
0.35 0.95 0
0.3 1 0
0.35 1 0
0.35 0.95 0
0.4 0.95 0
0.35 1 0
0.4 1 0
0.4 0.95 0
0.45 0.95 0
0.4 1 0
0.45 1 0
0.45 0.95 0
0.5 0.95 0
0.45 1 0
0.5 1 0
0.5 0.95 0
0.55 0.95 0
0.5 1 0
0.55 1 0
0.55 0.95 0
0.6 0.95 0
0.55 1 0
0.6 1 0
0.6 0.95 0
0.65 0.95 0
0.6 1 0
0.65 1 0
0.65 0.95 0
0.7 0.95 0
0.65 1 0
0.7 1 0
0.7 0.95 0
0.75 0.95 0
0.7 1 0
0.75 1 0
0.75 0.95 0
0.8 0.95 0
0.75 1 0
0.8 1 0
0.8 0.95 0
0.85 0.95 0
0.8 1 0
0.85 1 0
0.85 0.95 0
0.9 0.95 0
0.85 1 0
0.9 1 0
0.9 0.95 0
0.95 0.95 0
0.9 1 0
0.95 1 0
0.95 0.95 0
1 0.95 0
0.95 1 0
1 1 0
1 0.95 0
1.05 0.95 0
1 1 0
1.05 1 0
1.05 0.95 0
1.1 0.95 0
1.05 1 0
1.1 1 0
1.1 0.95 0
1.15 0.95 0
1.1 1 0
1.15 1 0
1.15 0.95 0
1.2 0.95 0
1.15 1 0
1.2 1 0
1.2 0.95 0
1.25 0.95 0
1.2 1 0
1.25 1 0
1.25 0.95 0
1.3 0.95 0
1.25 1 0
1.3 1 0
1.3 0 0
1.325 0 0
1.3 0.025 0
1.325 0.025 0
1.325 0 0
1.35 0 0
1.325 0.025 0
1.35 0.025 0
1.3 0.025 0
1.325 0.025 0
1.3 0.05 0
1.325 0.05 0
1.325 0.025 0
1.35 0.025 0
1.325 0.05 0
1.35 0.05 0
1.35 0 0
1.375 0 0
1.35 0.025 0
1.375 0.025 0
1.375 0 0
1.4 0 0
1.375 0.025 0
1.4 0.025 0
1.35 0.025 0
1.375 0.025 0
1.35 0.05 0
1.375 0.05 0
1.375 0.025 0
1.4 0.025 0
1.375 0.05 0
1.4 0.05 0
1.4 0 0
1.425 0 0
1.4 0.025 0
1.425 0.025 0
1.425 0 0
1.45 0 0
1.425 0.025 0
1.45 0.025 0
1.4 0.025 0
1.425 0.025 0
1.4 0.05 0
1.425 0.05 0
1.425 0.025 0
1.45 0.025 0
1.425 0.05 0
1.45 0.05 0
1.45 0 0
1.475 0 0
1.45 0.025 0
1.475 0.025 0
1.475 0 0
1.5 0 0
1.475 0.025 0
1.5 0.025 0
1.45 0.025 0
1.475 0.025 0
1.45 0.05 0
1.475 0.05 0
1.475 0.025 0
1.5 0.025 0
1.475 0.05 0
1.5 0.05 0
1.5 0 0
1.525 0 0
1.5 0.025 0
1.525 0.025 0
1.525 0 0
1.55 0 0
1.525 0.025 0
1.55 0.025 0
1.5 0.025 0
1.525 0.025 0
1.5 0.05 0
1.525 0.05 0
1.525 0.025 0
1.55 0.025 0
1.525 0.05 0
1.55 0.05 0
1.55 0 0
1.575 0 0
1.55 0.025 0
1.575 0.025 0
1.575 0 0
1.6 0 0
1.575 0.025 0
1.6 0.025 0
1.55 0.025 0
1.575 0.025 0
1.55 0.05 0
1.575 0.05 0
1.575 0.025 0
1.6 0.025 0
1.575 0.05 0
1.6 0.05 0
1.6 0 0
1.625 0 0
1.6 0.025 0
1.625 0.025 0
1.625 0 0
1.65 0 0
1.625 0.025 0
1.65 0.025 0
1.6 0.025 0
1.625 0.025 0
1.6 0.05 0
1.625 0.05 0
1.625 0.025 0
1.65 0.025 0
1.625 0.05 0
1.65 0.05 0
1.65 0 0
1.675 0 0
1.65 0.025 0
1.675 0.025 0
1.675 0 0
1.7 0 0
1.675 0.025 0
1.7 0.025 0
1.65 0.025 0
1.675 0.025 0
1.65 0.05 0
1.675 0.05 0
1.675 0.025 0
1.7 0.025 0
1.675 0.05 0
1.7 0.05 0
1.7 0 0
1.725 0 0
1.7 0.025 0
1.725 0.025 0
1.725 0 0
1.75 0 0
1.725 0.025 0
1.75 0.025 0
1.7 0.025 0
1.725 0.025 0
1.7 0.05 0
1.725 0.05 0
1.725 0.025 0
1.75 0.025 0
1.725 0.05 0
1.75 0.05 0
1.75 0 0
1.775 0 0
1.75 0.025 0
1.775 0.025 0
1.775 0 0
1.8 0 0
1.775 0.025 0
1.8 0.025 0
1.75 0.025 0
1.775 0.025 0
1.75 0.05 0
1.775 0.05 0
1.775 0.025 0
1.8 0.025 0
1.775 0.05 0
1.8 0.05 0
1.8 0 0
1.825 0 0
1.8 0.025 0
1.825 0.025 0
1.825 0 0
1.85 0 0
1.825 0.025 0
1.85 0.025 0
1.8 0.025 0
1.825 0.025 0
1.8 0.05 0
1.825 0.05 0
1.825 0.025 0
1.85 0.025 0
1.825 0.05 0
1.85 0.05 0
1.85 0 0
1.875 0 0
1.85 0.025 0
1.875 0.025 0
1.875 0 0
1.9 0 0
1.875 0.025 0
1.9 0.025 0
1.85 0.025 0
1.875 0.025 0
1.85 0.05 0
1.875 0.05 0
1.875 0.025 0
1.9 0.025 0
1.875 0.05 0
1.9 0.05 0
1.9 0 0
1.925 0 0
1.9 0.025 0
1.925 0.025 0
1.925 0 0
1.95 0 0
1.925 0.025 0
1.95 0.025 0
1.9 0.025 0
1.925 0.025 0
1.9 0.05 0
1.925 0.05 0
1.925 0.025 0
1.95 0.025 0
1.925 0.05 0
1.95 0.05 0
1.95 0 0
1.975 0 0
1.95 0.025 0
1.975 0.025 0
1.975 0 0
2 0 0
1.975 0.025 0
2 0.025 0
1.95 0.025 0
1.975 0.025 0
1.95 0.05 0
1.975 0.05 0
1.975 0.025 0
2 0.025 0
1.975 0.05 0
2 0.05 0
0 0.05 0
0.025 0.05 0
0 0.075 0
0.025 0.075 0
0.025 0.05 0
0.05 0.05 0
0.025 0.075 0
0.05 0.075 0
0 0.075 0
0.025 0.075 0
0 0.1 0
0.025 0.1 0
0.025 0.075 0
0.05 0.075 0
0.025 0.1 0
0.05 0.1 0
0.05 0.05 0
0.075 0.05 0
0.05 0.075 0
0.075 0.075 0
0.075 0.05 0
0.1 0.05 0
0.075 0.075 0
0.1 0.075 0
0.05 0.075 0
0.075 0.075 0
0.05 0.1 0
0.075 0.1 0
0.075 0.075 0
0.1 0.075 0
0.075 0.1 0
0.1 0.1 0
0.3 0.05 0
0.325 0.05 0
0.3 0.075 0
0.325 0.075 0
0.325 0.05 0
0.35 0.05 0
0.325 0.075 0
0.35 0.075 0
0.3 0.075 0
0.325 0.075 0
0.3 0.1 0
0.325 0.1 0
0.325 0.075 0
0.35 0.075 0
0.325 0.1 0
0.35 0.1 0
0.35 0.05 0
0.375 0.05 0
0.35 0.075 0
0.375 0.075 0
0.375 0.05 0
0.4 0.05 0
0.375 0.075 0
0.4 0.075 0
0.35 0.075 0
0.375 0.075 0
0.35 0.1 0
0.375 0.1 0
0.375 0.075 0
0.4 0.075 0
0.375 0.1 0
0.4 0.1 0
0.4 0.05 0
0.425 0.05 0
0.4 0.075 0
0.425 0.075 0
0.425 0.05 0
0.45 0.05 0
0.425 0.075 0
0.45 0.075 0
0.4 0.075 0
0.425 0.075 0
0.4 0.1 0
0.425 0.1 0
0.425 0.075 0
0.45 0.075 0
0.425 0.1 0
0.45 0.1 0
0.45 0.05 0
0.475 0.05 0
0.45 0.075 0
0.475 0.075 0
0.475 0.05 0
0.5 0.05 0
0.475 0.075 0
0.5 0.075 0
0.45 0.075 0
0.475 0.075 0
0.45 0.1 0
0.475 0.1 0
0.475 0.075 0
0.5 0.075 0
0.475 0.1 0
0.5 0.1 0
0.5 0.05 0
0.525 0.05 0
0.5 0.075 0
0.525 0.075 0
0.525 0.05 0
0.55 0.05 0
0.525 0.075 0
0.55 0.075 0
0.5 0.075 0
0.525 0.075 0
0.5 0.1 0
0.525 0.1 0
0.525 0.075 0
0.55 0.075 0
0.525 0.1 0
0.55 0.1 0
0.55 0.05 0
0.575 0.05 0
0.55 0.075 0
0.575 0.075 0
0.575 0.05 0
0.6 0.05 0
0.575 0.075 0
0.6 0.075 0
0.55 0.075 0
0.575 0.075 0
0.55 0.1 0
0.575 0.1 0
0.575 0.075 0
0.6 0.075 0
0.575 0.1 0
0.6 0.1 0
0.6 0.05 0
0.625 0.05 0
0.6 0.075 0
0.625 0.075 0
0.625 0.05 0
0.65 0.05 0
0.625 0.075 0
0.65 0.075 0
0.6 0.075 0
0.625 0.075 0
0.6 0.1 0
0.625 0.1 0
0.625 0.075 0
0.65 0.075 0
0.625 0.1 0
0.65 0.1 0
0.65 0.05 0
0.675 0.05 0
0.65 0.075 0
0.675 0.075 0
0.675 0.05 0
0.7 0.05 0
0.675 0.075 0
0.7 0.075 0
0.65 0.075 0
0.675 0.075 0
0.65 0.1 0
0.675 0.1 0
0.675 0.075 0
0.7 0.075 0
0.675 0.1 0
0.7 0.1 0
0.7 0.05 0
0.725 0.05 0
0.7 0.075 0
0.725 0.075 0
0.725 0.05 0
0.75 0.05 0
0.725 0.075 0
0.75 0.075 0
0.7 0.075 0
0.725 0.075 0
0.7 0.1 0
0.725 0.1 0
0.725 0.075 0
0.75 0.075 0
0.725 0.1 0
0.75 0.1 0
0.75 0.05 0
0.775 0.05 0
0.75 0.075 0
0.775 0.075 0
0.775 0.05 0
0.8 0.05 0
0.775 0.075 0
0.8 0.075 0
0.75 0.075 0
0.775 0.075 0
0.75 0.1 0
0.775 0.1 0
0.775 0.075 0
0.8 0.075 0
0.775 0.1 0
0.8 0.1 0
0.8 0.05 0
0.825 0.05 0
0.8 0.075 0
0.825 0.075 0
0.825 0.05 0
0.85 0.05 0
0.825 0.075 0
0.85 0.075 0
0.8 0.075 0
0.825 0.075 0
0.8 0.1 0
0.825 0.1 0
0.825 0.075 0
0.85 0.075 0
0.825 0.1 0
0.85 0.1 0
0.85 0.05 0
0.875 0.05 0
0.85 0.075 0
0.875 0.075 0
0.875 0.05 0
0.9 0.05 0
0.875 0.075 0
0.9 0.075 0
0.85 0.075 0
0.875 0.075 0
0.85 0.1 0
0.875 0.1 0
0.875 0.075 0
0.9 0.075 0
0.875 0.1 0
0.9 0.1 0
0.9 0.05 0
0.925 0.05 0
0.9 0.075 0
0.925 0.075 0
0.925 0.05 0
0.95 0.05 0
0.925 0.075 0
0.95 0.075 0
0.9 0.075 0
0.925 0.075 0
0.9 0.1 0
0.925 0.1 0
0.925 0.075 0
0.95 0.075 0
0.925 0.1 0
0.95 0.1 0
0.95 0.05 0
0.975 0.05 0
0.95 0.075 0
0.975 0.075 0
0.975 0.05 0
1 0.05 0
0.975 0.075 0
1 0.075 0
0.95 0.075 0
0.975 0.075 0
0.95 0.1 0
0.975 0.1 0
0.975 0.075 0
1 0.075 0
0.975 0.1 0
1 0.1 0
1 0.05 0
1.025 0.05 0
1 0.075 0
1.025 0.075 0
1.025 0.05 0
1.05 0.05 0
1.025 0.075 0
1.05 0.075 0
1 0.075 0
1.025 0.075 0
1 0.1 0
1.025 0.1 0
1.025 0.075 0
1.05 0.075 0
1.025 0.1 0
1.05 0.1 0
1.05 0.05 0
1.075 0.05 0
1.05 0.075 0
1.075 0.075 0
1.075 0.05 0
1.1 0.05 0
1.075 0.075 0
1.1 0.075 0
1.05 0.075 0
1.075 0.075 0
1.05 0.1 0
1.075 0.1 0
1.075 0.075 0
1.1 0.075 0
1.075 0.1 0
1.1 0.1 0
1.1 0.05 0
1.125 0.05 0
1.1 0.075 0
1.125 0.075 0
1.125 0.05 0
1.15 0.05 0
1.125 0.075 0
1.15 0.075 0
1.1 0.075 0
1.125 0.075 0
1.1 0.1 0
1.125 0.1 0
1.125 0.075 0
1.15 0.075 0
1.125 0.1 0
1.15 0.1 0
1.15 0.05 0
1.175 0.05 0
1.15 0.075 0
1.175 0.075 0
1.175 0.05 0
1.2 0.05 0
1.175 0.075 0
1.2 0.075 0
1.15 0.075 0
1.175 0.075 0
1.15 0.1 0
1.175 0.1 0
1.175 0.075 0
1.2 0.075 0
1.175 0.1 0
1.2 0.1 0
1.2 0.05 0
1.225 0.05 0
1.2 0.075 0
1.225 0.075 0
1.225 0.05 0
1.25 0.05 0
1.225 0.075 0
1.25 0.075 0
1.2 0.075 0
1.225 0.075 0
1.2 0.1 0
1.225 0.1 0
1.225 0.075 0
[...]
POINT_DATA 11912
SCALARS x_displacement double 1
LOOKUP_TABLE default
0 -1.50456 0 -0.864523 -1.50456 -2.62704 -0.864523 -1.76629 -2.62704 -3.5453 -1.76629 -2.55244 -3.5453 -4.32858 -2.55244 -3.24909 -4.32858 -5.02558 -3.24909 -3.87088 -5.02558 -5.68586 -3.87088 -4.43811 -5.68586 -6.34892 -4.43811 -4.99225 -6.34892 -7.03384 -4.99225 -5.55583 -7.03384 -7.72552 -5.55583 -6.14896 -7.72552 -8.39307 -6.14896 -6.76961 -8.39307 -9.01503 -6.76961 -7.40697 -9.01503 -9.59507 -7.40697 -8.0547 -9.59507 -10.1486 -8.0547 -8.70331 -10.1486 -10.6938 -8.70331 -9.33927 -10.6938 -11.2507 -9.33927 -9.95077 -11.2507 -11.833 -9.95077 -10.5318 -11.833 -12.438 -10.5318 -11.0842 -12.438 -13.0514 -11.0842 -11.6162 -13.0514 -13.6587 -11.6162 -12.1364 -13.6587 -14.2515 -12.1364 -12.6499 -14.2515 -14.8321 -12.6499 -13.156 -14.8321 -15.4171 -13.156 -13.6496 -15.4171 -16.0252 -13.6496 -14.1301 -16.0252 -16.6402 -14.1301 -14.5905 -16.6402 -17.186 -14.5905 -15.012 -17.186 -17.573 -15.012 -15.3828 -1.76629 -2.55244 -1.17656 -1.77799 -2.55244 -3.24909 -1.77799 -2.33539 -3.24909 -3.87088 -2.33539 -2.83751 -3.87088 -4.43811 -2.83751 -3.26881 -2.33539 -2.83751 -1.53295 -1.93685 -2.83751 -3.26881 -1.93685 -2.2926 -0.998249 -1.11086 -0.0139483 -0.0136722 -1.11086 -1.1653 -0.0136722 -0.0137515 -1.31893 -1.31918 -0.00412262 -0.00293518 -2.07755 -2.33387 0.000811712 0.00063248 -2.33387 -2.39878 0.00063248 0.000532366 -0.192657 -0.111893 0.313647 0.451672 -0.0139483 -0.0136722 0.970137 1.08328 -0.0136722 -0.0137515 1.08328 1.13769 0.000811712 0.00063248 2.07871 2.33488 0.00063248 0.000532366 2.33488 2.39965 1.51348 1.91758 2.32637 2.8279 1.91758 2.27307 2.8279 3.25835 1.16913 1.76957 1.7684 2.55471 1.76957 2.32637 2.55471 3.25091 2.32637 2.8279 3.25091 3.8717 2.8279 3.25835 3.8717 4.43764 0 0.865678 0 1.51343 0.865678 1.7684 1.51343 2.64046 1.7684 2.55471 2.64046 3.56005 2.55471 3.25091 3.56005 4.34266 3.25091 3.8717 4.34266 5.03784 3.8717 4.43764 5.03784 5.69565 4.43764 4.99046 5.69565 6.35575 4.99046 5.55268 6.35575 7.03741 5.55268 6.14456 7.03741 7.72562 6.14456 6.76409 7.72562 8.38942 6.76409 7.40063 8.38942 9.00756 7.40063 8.04774 9.00756 9.58434 8.04774 8.69579 9.58434 10.1355 8.69579 9.33132 10.1355 10.679 9.33132 9.94278 10.679 11.2344 9.94278 10.5241 11.2344 11.8151 10.5241 11.0771 11.8151 12.419 11.0771 11.6094 12.419 13.0324 11.6094 12.1298 13.0324 13.6409 12.1298 12.6433 13.6409 14.2361 12.6433 13.1493 14.2361 14.8195 13.1493 13.6431 14.8195 15.4076 13.6431 14.124 15.4076 16.0184 14.124 14.5845 16.0184 16.635 14.5845 15.006 16.635 17.1811 15.006 15.3766 17.1811 17.5679 -17.573 -17.7189 -16.4779 -16.609 -17.7189 -17.8264 -16.609 -16.7558 -16.4779 -16.609 -15.3828 -15.5542 -16.609 -16.7558 -15.5542 -15.7049 -17.8264 -17.9513 -16.7558 -16.9077 -17.9513 -18.0243 -16.9077 -17.0447 -16.7558 -16.9077 -15.7049 -15.8358 -16.9077 -17.0447 -15.8358 -15.9495 -18.0243 -18.0602 -17.0447 -17.1327 -18.0602 -18.4626 -17.1327 -17.1894 -17.0447 -17.1327 -15.9495 -16.0643 -17.1327 -17.1894 -16.0643 -16.1702 -18.4626 -18.7421 -17.1894 -17.3145 -18.7421 -18.9514 -17.3145 -17.5999 -17.1894 -17.3145 -16.1702 -16.2411 -17.3145 -17.5999 -16.2411 -16.315 -18.9514 -19.1541 -17.5999 -17.8204 -19.1541 -19.3341 -17.8204 -18.0108 -17.5999 -17.8204 -16.315 -16.5433 -17.8204 -18.0108 -16.5433 -16.7377 -19.3341 -19.4934 -18.0108 -18.1828 -19.4934 -19.6371 -18.1828 -18.337 -18.0108 -18.1828 -16.7377 -16.9073 -18.1828 -18.337 -16.9073 -17.077 -19.6371 -19.7645 -18.337 -18.4759 -19.7645 -19.875 -18.4759 -18.5974 -18.337 -18.4759 -17.077 -17.2256 -18.4759 -18.5974 -17.2256 -17.3568 -19.875 -19.9677 -18.5974 -18.7023 -19.9677 -20.0434 -18.7023 -18.7915 -18.5974 -18.7023 -17.3568 -17.473 -18.7023 -18.7915 -17.473 -17.5742 -20.0434 -20.1031 -18.7915 -18.8659 -20.1031 -20.1479 -18.8659 -18.926 -18.7915 -18.8659 -17.5742 -17.6613 -18.8659 -18.926 -17.6613 -17.7348 -20.1479 -20.1787 -18.926 -18.9728 -20.1787 -20.1967 -18.9728 -19.0073 -18.926 -18.9728 -17.7348 -17.7951 -18.9728 -19.0073 -17.7951 -17.8429 -20.1967 -20.2036 -19.0073 -19.0309 -20.2036 -20.2014 -19.0309 -19.0452 -19.0073 -19.0309 -17.8429 -17.8793 -19.0309 -19.0452 -17.8793 -17.9056 -20.2014 -20.1928 -19.0452 -19.0521 -20.1928 -20.1809 -19.0521 -19.054 -19.0452 -19.0521 -17.9056 -17.9232 -19.0521 -19.054 -17.9232 -17.9338 -20.1809 -20.169 -19.054 -19.0529 -20.169 -20.1599 -19.0529 -19.0508 -19.054 -19.0529 -17.9338 -17.9392 -19.0529 -19.0508 -17.9392 -17.9414 -20.1599 -20.1554 -19.0508 -19.0494 -20.1554 -20.1545 -19.0494 -19.0493 -19.0508 -19.0494 -17.9414 -17.9424 -19.0494 -19.0493 -17.9424 -17.9438 0 -0.432261 0 -0.352835 -0.432261 -0.864523 -0.352835 -0.72042 0 -0.352835 0 -0.266684 -0.352835 -0.72042 -0.266684 -0.57832 -0.864523 -1.31541 -0.72042 -1.08958 -1.31541 -1.76629 -1.08958 -1.47142 -0.72042 -1.08958 -0.57832 -0.883857 -1.08958 -1.47142 -0.883857 -1.17656 -4.43811 -4.71518 -3.85346 -4.07665 -4.71518 -4.99225 -4.07665 -4.30395 -3.85346 -4.07665 -3.26881 -3.46163 -4.07665 -4.30395 -3.46163 -3.62928 -4.99225 -5.27404 -4.30395 -4.545 -5.27404 -5.55583 -4.545 -4.80131 -4.30395 -4.545 -3.62928 -3.80689 -4.545 -4.80131 -3.80689 -4.02141 -5.55583 -5.85239 -4.80131 -5.0674 -5.85239 -6.14896 -5.0674 -5.34265 -4.80131 -5.0674 -4.02141 -4.26592 -5.0674 -5.34265 -4.26592 -4.50394 -6.14896 -6.45929 -5.34265 -5.63719 -6.45929 -6.76961 -5.63719 -5.95035 -5.34265 -5.63719 -4.50394 -4.77575 -5.63719 -5.95035 -4.77575 -5.08737 -6.76961 -7.08829 -5.95035 -6.27048 -7.08829 -7.40697 -6.27048 -6.60186 -5.95035 -6.27048 -5.08737 -5.42948 -6.27048 -6.60186 -5.42948 -5.77946 -7.40697 -7.73083 -6.60186 -6.94132 -7.73083 -8.0547 -6.94132 -7.28849 -6.60186 -6.94132 -5.77946 -6.14671 -6.94132 -7.28849 -6.14671 -6.52269 -8.0547 -8.379 -7.28849 -7.63833 -8.379 -8.70331 -7.63833 -7.98885 -7.28849 -7.63833 -6.52269 -6.90351 -7.63833 -7.98885 -6.90351 -7.28806 -8.70331 -9.02129 -7.98885 -8.3366 -9.02129 -9.33927 -8.3366 -8.6769 -7.98885 -8.3366 -7.28806 -7.67213 -8.3366 -8.6769 -7.67213 -8.04714 -9.33927 -9.64502 -8.6769 -9.00623 -9.64502 -9.95077 -9.00623 -9.32021 -8.6769 -9.00623 -8.04714 -8.40098 -9.00623 -9.32021 -8.40098 -8.7285 -9.95077 -10.2413 -9.32021 -9.6174 -10.2413 -10.5318 -9.6174 -9.8985 -9.32021 -9.6174 -8.7285 -9.02277 -9.6174 -9.8985 -9.02277 -9.29134 -10.5318 -10.808 -9.8985 -10.164 -10.808 -11.0842 -10.164 -10.4194 -9.8985 -10.164 -9.29134 -9.5355 -10.164 -10.4194 -9.5355 -9.76562 -11.0842 -11.3502 -10.4194 -10.6646 -11.3502 -11.6162 -10.6646 -10.906 -10.4194 -10.6646 -9.76562 -9.98306 -10.6646 -10.906 -9.98306 -10.1979 -11.6162 -11.8763 -10.906 -11.1438 -11.8763 -12.1364 -11.1438 -11.38 -10.906 -11.1438 -10.1979 -10.4109 -11.1438 -11.38 -10.4109 -10.6214 -12.1364 -12.3932 -11.38 -11.6164 -12.3932 -12.6499 -11.6164 -11.853 -11.38 -11.6164 -10.6214 -10.836 -11.6164 -11.853 -10.836 -11.0543 -12.6499 -12.903 -11.853 -12.0893 -12.903 -13.156 -12.0893 -12.3231 -11.853 -12.0893 -11.0543 -11.2753 -12.0893 -12.3231 -11.2753 -11.4972 -13.156 -13.4028 -12.3231 -12.553 -13.4028 -13.6496 -12.553 -12.7755 -12.3231 -12.553 -11.4972 -11.7159 -12.553 -12.7755 -11.7159 -11.9282 -13.6496 -13.8899 -12.7755 -12.994 -13.8899 -14.1301 -12.994 -13.2047 -12.7755 -12.994 -11.9282 -12.13 -12.994 -13.2047 -12.13 -12.3201 -14.1301 -14.3603 -13.2047 -13.4121 -14.3603 -14.5905 -13.4121 -13.6093 -13.2047 -13.4121 -12.3201 -12.4956 -13.4121 -13.6093 -12.4956 -12.6601 -14.5905 -14.8012 -13.6093 -13.8016 -14.8012 -15.012 -13.8016 -13.9859 -13.6093 -13.8016 -12.6601 -12.816 -13.8016 -13.9859 -12.816 -12.9697 -15.012 -15.1974 -13.9859 -14.1633 -15.1974 -15.3828 -14.1633 -14.3293 -13.9859 -14.1633 -12.9697 -13.121 -14.1633 -14.3293 -13.121 -13.2653 -15.3828 -15.5542 -14.3293 -14.4784 -15.5542 -15.7049 -14.4784 -14.6141 -14.3293 -14.4784 -13.2653 -13.3977 -14.4784 -14.6141 -13.3977 -13.5218 -15.7049 -15.8358 -14.6141 -14.7411 -15.8358 -15.9495 -14.7411 -14.8596 -14.6141 -14.7411 -13.5218 -13.6425 -14.7411 -14.8596 -13.6425 -13.7621 -15.9495 -16.0643 -14.8596 -14.97 -16.0643 -16.1702 -14.97 -15.0885 -14.8596 -14.97 -13.7621 -13.8826 -14.97 -15.0885 -13.8826 -14.0116 -16.1702 -16.2411 -15.0885 -15.2412 -16.2411 -16.315 -15.2412 -15.3324 -15.0885 -15.2412 -14.0116 -14.1337 -15.2412 -15.3324 -14.1337 -14.2538 -16.315 -16.5433 -15.3324 -15.337 -16.5433 -16.7377 -15.337 -15.4714 -15.3324 -15.337 -14.2538 -14.3636 -15.337 -15.4714 -14.3636 -14.4501 -16.7377 -16.9073 -15.4714 -15.685 -16.9073 -17.077 -15.685 -15.8567 -15.4714 -15.685 -14.4501 -14.4735 -15.685 -15.8567 -14.4735 -14.6584 -17.077 -17.2256 -15.8567 -16.0084 -17.2256 -17.3568 -16.0084 -16.1513 -15.8567 -16.0084 -14.6584 -14.8269 -16.0084 -16.1513 -14.8269 -14.9752 -17.3568 -17.473 -16.1513 -16.2772 -17.473 -17.5742 -16.2772 -16.3895 -16.1513 -16.2772 -14.9752 -15.1137 -16.2772 -16.3895 -15.1137 -15.2369 -17.5742 -17.6613 -16.3895 -16.4882 -17.6613 -17.7348 -16.4882 -16.5733 -16.3895 -16.4882 -15.2369 -15.346 -16.4882 -16.5733 -15.346 -15.4416 -17.7348 -17.7951 -16.5733 -16.6449 -17.7951 -17.8429 -16.6449 -16.7035 -16.5733 -16.6449 -15.4416 -15.5224 -16.6449 -16.7035 -15.5224 -15.5894 -17.8429 -17.8793 -16.7035 -16.7498 -17.8793 -17.9056 -16.7498 -16.7849 -16.7035 -16.7498 -15.5894 -15.6435 -16.7498 -16.7849 -15.6435 -15.6855 -17.9056 -17.9232 -16.7849 -16.8099 -17.9232 -17.9338 -16.8099 -16.8261 -16.7849 -16.8099 -15.6855 -15.716 -16.8099 -16.8261 -15.716 -15.7359 -17.9338 -17.9392 -16.8261 -16.8353 -17.9392 -17.9414 -16.8353 -16.8397 -16.8261 -16.8353 -15.7359 -15.7471 -16.8353 -16.8397 -15.7471 -15.752 -17.9414 -17.9424 -16.8397 -16.8417 -17.9424 -17.9438 -16.8417 -16.8441 -16.8397 -16.8417 -15.752 -15.7539 -16.8417 -16.8441 -15.7539 -15.7566 0 -0.266684 0 -0.192261 -0.266684 -0.57832 -0.192261 -0.448245 0 -0.192261 0 -0.0999288 -0.192261 -0.448245 -0.0999288 -0.261036 -0.57832 -0.883857 -0.448245 -0.679928 -0.883857 -1.17656 -0.679928 -0.929489 -0.448245 -0.679928 -0.261036 -0.467169 -0.679928 -0.929489 -0.467169 -0.696035 -1.17656 -1.47727 -0.929489 -1.18727 -1.47727 -1.77799 -1.18727 -1.43736 -0.929489 -1.18727 -0.696035 -0.899346 -1.18727 -1.43736 -0.899346 -1.10976 -1.77799 -2.05669 -1.43736 -1.68694 -2.05669 -2.33539 -1.68694 -1.93417 -1.43736 -1.68694 -1.10976 -1.32635 -1.68694 -1.93417 -1.32635 -1.53295 -3.26881 -3.46163 -2.7807 -2.92624 -3.46163 -3.62928 -2.92624 -3.06247 -2.7807 -2.92624 -2.2926 -2.45741 -2.92624 -3.06247 -2.45741 -2.6024 -3.62928 -3.80689 -3.06247 -3.18253 -3.80689 -4.02141 -3.18253 -3.30804 -3.06247 -3.18253 -2.6024 -2.73299 -3.18253 -3.30804 -2.73299 -2.86336 -4.02141 -4.26592 -3.30804 -3.48559 -4.26592 -4.50394 -3.48559 -3.70651 -3.30804 -3.48559 -2.86336 -3.00098 -3.48559 -3.70651 -3.00098 -3.13349 -4.50394 -4.77575 -3.70651 -3.9124 -4.77575 -5.08737 -3.9124 -4.1104 -3.70651 -3.9124 -3.13349 -3.25865 -3.9124 -4.1104 -3.25865 -3.36754 -5.08737 -5.42948 -4.1104 -4.41579 -5.42948 -5.77946 -4.41579 -4.93202 -4.1104 -4.41579 -3.36754 -3.46123 -4.41579 -4.93202 -3.46123 -3.5305 -5.77946 -6.14671 -4.93202 -5.3477 -6.14671 -6.52269 -5.3477 -5.76273 -4.93202 -5.3477 -3.5305 -4.21848 -5.3477 -5.76273 -4.21848 -5.24473 -6.52269 -6.90351 -5.76273 -6.18454 -6.90351 -7.28806 -6.18454 -6.60442 -5.76273 -6.18454 -5.24473 -5.77735 -6.18454 -6.60442 -5.77735 -6.22653 -7.28806 -7.67213 -6.60442 -7.04411 -7.67213 -8.04714 -7.04411 -7.44431 -6.60442 -7.04411 -6.22653 -6.65285 -7.04411 -7.44431 -6.65285 -7.02658 -8.04714 -8.40098 -7.44431 -7.83177 -8.40098 -8.7285 -7.83177 -8.14871 -7.44431 -7.83177 -7.02658 -7.31617 -7.83177 -8.14871 -7.31617 -7.62518 -8.7285 -9.02277 -8.14871 -8.43968 -9.02277 -9.29134 -8.43968 -8.67895 -8.14871 -8.43968 -7.62518 -7.83569 -8.43968 -8.67895 -7.83569 -8.08074 -9.29134 -9.5355 -8.67895 -8.90463 -9.5355 -9.76562 -8.90463 -9.10304 -8.67895 -8.90463 -8.08074 -8.24813 -8.90463 -9.10304 -8.24813 -8.44682 -9.76562 -9.98306 -9.10304 -9.29694 -9.98306 -10.1979 -9.29694 -9.48355 -9.10304 -9.29694 -8.44682 -8.59602 -9.29694 -9.48355 -8.59602 -8.77114 -10.1979 -10.4109 -9.48355 -9.67345 -10.4109 -10.6214 -9.67345 -9.859 -9.48355 -9.67345 -8.77114 -8.9313 -9.67345 -9.859 -8.9313 -9.09614 -10.6214 -10.836 -9.859 -10.0527 -10.836 -11.0543 -10.0527 -10.2539 -9.859 -10.0527 -9.09614 -9.27007 -10.0527 -10.2539 -9.27007 -9.45576 -11.0543 -11.2753 -10.2539 -10.4638 -11.2753 -11.4972 -10.4638 -10.6821 -10.2539 -10.4638 -9.45576 -9.66014 -10.4638 -10.6821 -9.66014 -9.88901 -11.4972 -11.7159 -10.6821 -10.9068 -11.7159 -11.9282 -10.9068 -11.1326 -10.6821 -10.9068 -9.88901 -10.2086 -10.9068 -11.1326 -10.2086 -10.4785 -11.9282 -12.13 -11.1326 -11.3336 -12.13 -12.3201 -11.3336 -11.494 -11.1326 -11.3336 -10.4785 -10.6207 -11.3336 -11.494 -10.6207 -10.7115 -12.3201 -12.4956 -11.494 -11.6233 -12.4956 -12.6601 -11.6233 -11.7367 -11.494 -11.6233 -10.7115 -10.7792 -11.6233 -11.7367 -10.7792 -10.8324 -12.6601 -12.816 -11.7367 -11.8409 -12.816 -12.9697 -11.8409 -11.9434 -11.7367 -11.8409 -10.8324 -10.8752 -11.8409 -11.9434 -10.8752 -10.9128 -12.9697 -13.121 -11.9434 -12.0525 -13.121 -13.2653 -12.0525 -12.169 -11.9434 -12.0525 -10.9128 -10.9538 -12.0525 -12.169 -10.9538 -11.0219 -13.2653 -13.3977 -12.169 -12.2907 -13.3977 -13.5218 -12.2907 -12.4111 -12.169 -12.2907 -11.0219 -11.1364 -12.2907 -12.4111 -11.1364 -11.2743 -13.5218 -13.6425 -12.4111 -12.5339 -13.6425 -13.7621 -12.5339 -12.6599 -12.4111 -12.5339 -11.2743 -11.4114 -12.5339 -12.6599 -11.4114 -11.5464 -13.7621 -13.8826 -12.6599 -12.7861 -13.8826 -14.0116 -12.7861 -12.9144 -12.6599 -12.7861 -11.5464 -11.6805 -12.7861 -12.9144 -11.6805 -11.814 -14.0116 -14.1337 -12.9144 -13.0402 -14.1337 -14.2538 -13.0402 -13.1584 -12.9144 -13.0402 -11.814 -11.9463 -13.0402 -13.1584 -11.9463 -12.0793 -14.2538 -14.3636 -13.1584 -13.2857 -14.3636 -14.4501 -13.2857 -13.4291 -13.1584 -13.2857 -12.0793 -12.2149 -13.2857 -13.4291 -12.2149 -12.3393 -14.4501 -14.4735 -13.4291 -13.5145 -14.4735 -14.6584 -13.5145 -13.5395 -13.4291 -13.5145 -12.3393 -12.4687 -13.5145 -13.5395 -12.4687 -12.6048 -14.6584 -14.8269 -13.5395 -13.6294 -14.8269 -14.9752 -13.6294 -13.8344 -13.5395 -13.6294 -12.6048 -12.7009 -13.6294 -13.8344 -12.7009 -12.7257 -14.9752 -15.1137 -13.8344 -13.9859 -15.1137 -15.2369 -13.9859 -14.1157 -13.8344 -13.9859 -12.7257 -12.8977 -13.9859 -14.1157 -12.8977 -13.0333 -15.2369 -15.346 -14.1157 -14.2363 -15.346 -15.4416 -14.2363 -14.3395 -14.1157 -14.2363 -13.0333 -13.1581 -14.2363 -14.3395 -13.1581 -13.2684 -15.4416 -15.5224 -14.3395 -14.4272 -15.5224 -15.5894 -14.4272 -14.5006 -14.3395 -14.4272 -13.2684 -13.3568 -14.4272 -14.5006 -13.3568 -13.4358 -15.5894 -15.6435 -14.5006 -14.5615 -15.6435 -15.6855 -14.5615 -14.6096 -14.5006 -14.5615 -13.4358 -13.5046 -14.5615 -14.6096 -13.5046 -13.559 -15.6855 -15.716 -14.6096 -14.6446 -15.716 -15.7359 -14.6446 -14.6672 -14.6096 -14.6446 -13.559 -13.5984 -14.6446 -14.6672 -13.5984 -13.6236 -15.7359 -15.7471 -14.6672 -14.6793 -15.7471 -15.752 -14.6793 -14.6838 -14.6672 -14.6793 -13.6236 -13.6362 -14.6793 -14.6838 -13.6362 -13.6395 -15.752 -15.7539 -14.6838 -14.6846 -15.7539 -15.7566 -14.6846 -14.6866 -14.6838 -14.6846 -13.6395 -13.6384 -14.6846 -14.6866 -13.6384 -13.6386 0 -0.0999288 0 -0.116955 -0.0999288 -0.261036 -0.116955 -0.0635423 0 -0.116955 0 -0.0880404 -0.116955 -0.0635423 -0.0880404 -0.201509 -0.261036 -0.467169 -0.0635423 -0.247433 -0.467169 -0.696035 -0.247433 -0.427596 -0.0635423 -0.247433 -0.201509 -0.337725 -0.247433 -0.427596 -0.337725 -0.180389 -0.696035 -0.899346 -0.427596 -0.606313 -0.899346 -1.10976 -0.606313 -0.792669 -0.427596 -0.606313 -0.180389 -0.29268 -0.606313 -0.792669 -0.29268 -0.442015 -1.10976 -1.32635 -0.792669 -0.967552 -1.32635 -1.53295 -0.967552 -1.15178 -0.792669 -0.967552 -0.442015 -0.606444 -0.967552 -1.15178 -0.606444 -0.784804 -1.53295 -1.7349 -1.15178 -1.34203 -1.7349 -1.93685 -1.34203 -1.5216 -1.15178 -1.34203 -0.784804 -0.948262 -1.34203 -1.5216 -0.948262 -1.11793 -1.93685 -2.11472 -1.5216 -1.69729 -2.11472 -2.2926 -1.69729 -1.86515 -1.5216 -1.69729 -1.11793 -1.29195 -1.69729 -1.86515 -1.29195 -1.45747 -2.2926 -2.45741 -1.86515 -2.02579 -2.45741 -2.6024 -2.02579 -2.18011 -1.86515 -2.02579 -1.45747 -1.6197 -2.02579 -2.18011 -1.6197 -1.78059 -2.6024 -2.73299 -2.18011 -2.32852 -2.73299 -2.86336 -2.32852 -2.47532 -2.18011 -2.32852 -1.78059 -1.93863 -2.32852 -2.47532 -1.93863 -2.09314 -2.86336 -3.00098 -2.47532 -2.61433 -3.00098 -3.13349 -2.61433 -2.74563 -2.47532 -2.61433 -2.09314 -2.24644 -2.61433 -2.74563 -2.24644 -2.40442 -3.13349 -3.25865 -2.74563 -2.88046 -3.25865 -3.36754 -2.88046 -3.01807 -2.74563 -2.88046 -2.40442 -2.56041 -2.88046 -3.01807 -2.56041 -2.71455 -3.36754 -3.46123 -3.01807 -3.18831 -3.46123 -3.5305 -3.18831 -3.35233 -3.01807 -3.18831 -2.71455 -2.88274 -3.18831 -3.35233 -2.88274 -3.04924 -3.5305 -4.21848 -3.35233 -3.32029 -4.21848 -5.24473 -3.32029 -3.47807 -3.35233 -3.32029 -3.04924 -3.2108 -3.32029 -3.47807 -3.2108 -3.34197 -5.24473 -5.77735 -3.47807 -4.27285 -5.77735 -6.22653 -4.27285 -4.93283 -3.47807 -4.27285 -3.34197 -3.23172 -4.27285 -4.93283 -3.23172 -3.33812 -6.22653 -6.65285 -4.93283 -5.36957 -6.65285 -7.02658 -5.36957 -5.79011 -4.93283 -5.36957 -3.33812 -4.11442 -5.36957 -5.79011 -4.11442 -4.62607 -7.02658 -7.31617 -5.79011 -6.20885 -7.31617 -7.62518 -6.20885 -6.56806 -5.79011 -6.20885 -4.62607 -5.0968 -6.20885 -6.56806 -5.0968 -5.49765 -7.62518 -7.83569 -6.56806 -6.88315 -7.83569 -8.08074 -6.88315 -7.1531 -6.56806 -6.88315 -5.49765 -5.8495 -6.88315 -7.1531 -5.8495 -6.19249 -8.08074 -8.24813 -7.1531 -7.4193 -8.24813 -8.44682 -7.4193 -7.66168 -7.1531 -7.4193 -6.19249 -6.48602 -7.4193 -7.66168 -6.48602 -6.78318 -8.44682 -8.59602 -7.66168 -7.8979 -8.59602 -8.77114 -7.8979 -8.09582 -7.66168 -7.8979 -6.78318 -7.0816 -7.8979 -8.09582 -7.0816 -7.3642 -8.77114 -8.9313 -8.09582 -8.27377 -8.9313 -9.09614 -8.27377 -8.43942 -8.09582 -8.27377 -7.3642 -7.61871 -8.27377 -8.43942 -7.61871 -7.85367 -9.09614 -9.27007 -8.43942 -8.63496 -9.27007 -9.45576 -8.63496 -8.88 -8.43942 -8.63496 -7.85367 -8.09003 -8.63496 -8.88 -8.09003 -8.35822 -9.45576 -9.66014 -8.88 -9.29837 -9.66014 -9.88901 -9.29837 -9.63001 -8.88 -9.29837 -8.35822 -8.69424 -9.29837 -9.63001 -8.69424 -8.83582 -9.88901 -10.2086 -9.63001 -9.73274 -10.2086 -10.4785 -9.73274 -9.80283 -9.63001 -9.73274 -8.83582 -8.94138 -9.73274 -9.80283 -8.94138 -9.00944 -10.4785 -10.6207 -9.80283 -9.86564 -10.6207 -10.7115 -9.86564 -9.90718 -9.80283 -9.86564 -9.00944 -9.0456 -9.86564 -9.90718 -9.0456 -9.05747 -10.7115 -10.7792 -9.90718 -9.92838 -10.7792 -10.8324 -9.92838 -9.93293 -9.90718 -9.92838 -9.05747 -9.04975 -9.92838 -9.93293 -9.04975 -9.02359 -10.8324 -10.8752 -9.93293 -9.92349 -10.8752 -10.9128 -9.92349 -9.90068 -9.93293 -9.92349 -9.02359 -8.98018 -9.92349 -9.90068 -8.98018 -8.91856 -10.9128 -10.9538 -9.90068 -9.86292 -10.9538 -11.0219 -9.86292 -9.83739 -9.90068 -9.86292 -8.91856 -8.83753 -9.86292 -9.83739 -8.83753 -8.70587 -11.0219 -11.1364 -9.83739 -9.95318 -11.1364 -11.2743 -9.95318 -10.1277 -9.83739 -9.95318 -8.70587 -8.7613 -9.95318 -10.1277 -8.7613 -8.95678 -11.2743 -11.4114 -10.1277 -10.2699 -11.4114 -11.5464 -10.2699 -10.4209 -10.1277 -10.2699 -8.95678 -9.13327 -10.2699 -10.4209 -9.13327 -9.30829 -11.5464 -11.6805 -10.4209 -10.5734 -11.6805 -11.814 -10.5734 -10.7181 -10.4209 -10.5734 -9.30829 -9.46293 -10.5734 -10.7181 -9.46293 -9.61922 -11.814 -11.9463 -10.7181 -10.8602 -11.9463 -12.0793 -10.8602 -11.0001 -10.7181 -10.8602 -9.61922 -9.77721 -10.8602 -11.0001 -9.77721 -9.92611 -12.0793 -12.2149 -11.0001 -11.1395 -12.2149 -12.3393 -11.1395 -11.2765 -11.0001 -11.1395 -9.92611 -10.0717 -11.1395 -11.2765 -10.0717 -10.2161 -12.3393 -12.4687 -11.2765 -11.41 -12.4687 -12.6048 -11.41 -11.5467 -11.2765 -11.41 -10.2161 -10.3615 -11.41 -11.5467 -10.3615 -10.5054 -12.6048 -12.7009 -11.5467 -11.6902 -12.7009 -12.7257 -11.6902 -11.7908 -11.5467 -11.6902 -10.5054 -10.6362 -11.6902 -11.7908 -10.6362 -10.7755 -12.7257 -12.8977 -11.7908 -11.8463 -12.8977 -13.0333 -11.8463 -11.96 -11.7908 -11.8463 -10.7755 -10.9409 -11.8463 -11.96 -10.9409 -11.0285 -13.0333 -13.1581 -11.96 -12.1341 -13.1581 -13.2684 -12.1341 -12.2142 -11.96 -12.1341 -11.0285