# vtk DataFile Version 3.0
#This file was generated by the deal.II library on 2015/8/30 at 10:13:44
ASCII
DATASET UNSTRUCTURED_GRID

POINTS 20 double
1 0 0
2 0 0
1 1 0
2 1 0
0 0 0
0.5 0 0
0 0.5 0
0.5 0.5 0
0.5 0 0
1 0 0
0.5 0.5 0
1 0.5 0
0 0.5 0
0.5 0.5 0
0 1 0
0.5 1 0
0.5 0.5 0
1 0.5 0
0.5 1 0
1 1 0

CELLS 5 25
4	0	1	3	2
4	4	5	7	6
4	8	9	11	10
4	12	13	15	14
4	16	17	19	18

CELL_TYPES 5
 9 9 9 9 9
POINT_DATA 20
SCALARS x_displacement double 1
LOOKUP_TABLE default
-61.3363 -86.7067 61.3363 86.7067 0 -29.8983 0 9.98282e-14 -29.8983 -61.3363 9.98282e-14 5.32907e-14 0 9.98282e-14 0 29.8983 9.98282e-14 5.32907e-14 29.8983 61.3363 
SCALARS y_displacement double 1
LOOKUP_TABLE default
-79.5529 -260.765 -79.5529 -260.765 0 -25.7962 0 -19.4787 -25.7962 -79.5529 -19.4787 -79.5529 0 -19.4787 0 -25.7962 -19.4787 -79.5529 -25.7962 -79.5529 
