# vtk DataFile Version 3.0
#This file was generated by the deal.II library on 2015/9/1 at 17:12:52
ASCII
DATASET UNSTRUCTURED_GRID

POINTS 3200 double
0 0 0
0.05 0 0
0 0.05 0
0.05 0.05 0
0.05 0 0
0.1 0 0
0.05 0.05 0
0.1 0.05 0
0.1 0 0
0.15 0 0
0.1 0.05 0
0.15 0.05 0
0.15 0 0
0.2 0 0
0.15 0.05 0
0.2 0.05 0
0.2 0 0
0.25 0 0
0.2 0.05 0
0.25 0.05 0
0.25 0 0
0.3 0 0
0.25 0.05 0
0.3 0.05 0
0.3 0 0
0.35 0 0
0.3 0.05 0
0.35 0.05 0
0.35 0 0
0.4 0 0
0.35 0.05 0
0.4 0.05 0
0.4 0 0
0.45 0 0
0.4 0.05 0
0.45 0.05 0
0.45 0 0
0.5 0 0
0.45 0.05 0
0.5 0.05 0
0.5 0 0
0.55 0 0
0.5 0.05 0
0.55 0.05 0
0.55 0 0
0.6 0 0
0.55 0.05 0
0.6 0.05 0
0.6 0 0
0.65 0 0
0.6 0.05 0
0.65 0.05 0
0.65 0 0
0.7 0 0
0.65 0.05 0
0.7 0.05 0
0.7 0 0
0.75 0 0
0.7 0.05 0
0.75 0.05 0
0.75 0 0
0.8 0 0
0.75 0.05 0
0.8 0.05 0
0.8 0 0
0.85 0 0
0.8 0.05 0
0.85 0.05 0
0.85 0 0
0.9 0 0
0.85 0.05 0
0.9 0.05 0
0.9 0 0
0.95 0 0
0.9 0.05 0
0.95 0.05 0
0.95 0 0
1 0 0
0.95 0.05 0
1 0.05 0
1 0 0
1.05 0 0
1 0.05 0
1.05 0.05 0
1.05 0 0
1.1 0 0
1.05 0.05 0
1.1 0.05 0
1.1 0 0
1.15 0 0
1.1 0.05 0
1.15 0.05 0
1.15 0 0
1.2 0 0
1.15 0.05 0
1.2 0.05 0
1.2 0 0
1.25 0 0
1.2 0.05 0
1.25 0.05 0
1.25 0 0
1.3 0 0
1.25 0.05 0
1.3 0.05 0
1.3 0 0
1.35 0 0
1.3 0.05 0
1.35 0.05 0
1.35 0 0
1.4 0 0
1.35 0.05 0
1.4 0.05 0
1.4 0 0
1.45 0 0
1.4 0.05 0
1.45 0.05 0
1.45 0 0
1.5 0 0
1.45 0.05 0
1.5 0.05 0
1.5 0 0
1.55 0 0
1.5 0.05 0
1.55 0.05 0
1.55 0 0
1.6 0 0
1.55 0.05 0
1.6 0.05 0
1.6 0 0
1.65 0 0
1.6 0.05 0
1.65 0.05 0
1.65 0 0
1.7 0 0
1.65 0.05 0
1.7 0.05 0
1.7 0 0
1.75 0 0
1.7 0.05 0
1.75 0.05 0
1.75 0 0
1.8 0 0
1.75 0.05 0
1.8 0.05 0
1.8 0 0
1.85 0 0
1.8 0.05 0
1.85 0.05 0
1.85 0 0
1.9 0 0
1.85 0.05 0
1.9 0.05 0
1.9 0 0
1.95 0 0
1.9 0.05 0
1.95 0.05 0
1.95 0 0
2 0 0
1.95 0.05 0
2 0.05 0
0 0.05 0
0.05 0.05 0
0 0.1 0
0.05 0.1 0
0.05 0.05 0
0.1 0.05 0
0.05 0.1 0
0.1 0.1 0
0.1 0.05 0
0.15 0.05 0
0.1 0.1 0
0.15 0.1 0
0.15 0.05 0
0.2 0.05 0
0.15 0.1 0
0.2 0.1 0
0.2 0.05 0
0.25 0.05 0
0.2 0.1 0
0.25 0.1 0
0.25 0.05 0
0.3 0.05 0
0.25 0.1 0
0.3 0.1 0
0.3 0.05 0
0.35 0.05 0
0.3 0.1 0
0.35 0.1 0
0.35 0.05 0
0.4 0.05 0
0.35 0.1 0
0.4 0.1 0
0.4 0.05 0
0.45 0.05 0
0.4 0.1 0
0.45 0.1 0
0.45 0.05 0
0.5 0.05 0
0.45 0.1 0
0.5 0.1 0
0.5 0.05 0
0.55 0.05 0
0.5 0.1 0
0.55 0.1 0
0.55 0.05 0
0.6 0.05 0
0.55 0.1 0
0.6 0.1 0
0.6 0.05 0
0.65 0.05 0
0.6 0.1 0
0.65 0.1 0
0.65 0.05 0
0.7 0.05 0
0.65 0.1 0
0.7 0.1 0
0.7 0.05 0
0.75 0.05 0
0.7 0.1 0
0.75 0.1 0
0.75 0.05 0
0.8 0.05 0
0.75 0.1 0
0.8 0.1 0
0.8 0.05 0
0.85 0.05 0
0.8 0.1 0
0.85 0.1 0
0.85 0.05 0
0.9 0.05 0
0.85 0.1 0
0.9 0.1 0
0.9 0.05 0
0.95 0.05 0
0.9 0.1 0
0.95 0.1 0
0.95 0.05 0
1 0.05 0
0.95 0.1 0
1 0.1 0
1 0.05 0
1.05 0.05 0
1 0.1 0
1.05 0.1 0
1.05 0.05 0
1.1 0.05 0
1.05 0.1 0
1.1 0.1 0
1.1 0.05 0
1.15 0.05 0
1.1 0.1 0
1.15 0.1 0
1.15 0.05 0
1.2 0.05 0
1.15 0.1 0
1.2 0.1 0
1.2 0.05 0
1.25 0.05 0
1.2 0.1 0
1.25 0.1 0
1.25 0.05 0
1.3 0.05 0
1.25 0.1 0
1.3 0.1 0
1.3 0.05 0
1.35 0.05 0
1.3 0.1 0
1.35 0.1 0
1.35 0.05 0
1.4 0.05 0
1.35 0.1 0
1.4 0.1 0
1.4 0.05 0
1.45 0.05 0
1.4 0.1 0
1.45 0.1 0
1.45 0.05 0
1.5 0.05 0
1.45 0.1 0
1.5 0.1 0
1.5 0.05 0
1.55 0.05 0
1.5 0.1 0
1.55 0.1 0
1.55 0.05 0
1.6 0.05 0
1.55 0.1 0
1.6 0.1 0
1.6 0.05 0
1.65 0.05 0
1.6 0.1 0
1.65 0.1 0
1.65 0.05 0
1.7 0.05 0
1.65 0.1 0
1.7 0.1 0
1.7 0.05 0
1.75 0.05 0
1.7 0.1 0
1.75 0.1 0
1.75 0.05 0
1.8 0.05 0
1.75 0.1 0
1.8 0.1 0
1.8 0.05 0
1.85 0.05 0
1.8 0.1 0
1.85 0.1 0
1.85 0.05 0
1.9 0.05 0
1.85 0.1 0
1.9 0.1 0
1.9 0.05 0
1.95 0.05 0
1.9 0.1 0
1.95 0.1 0
1.95 0.05 0
2 0.05 0
1.95 0.1 0
2 0.1 0
0 0.1 0
0.05 0.1 0
0 0.15 0
0.05 0.15 0
0.05 0.1 0
0.1 0.1 0
0.05 0.15 0
0.1 0.15 0
0.1 0.1 0
0.15 0.1 0
0.1 0.15 0
0.15 0.15 0
0.15 0.1 0
0.2 0.1 0
0.15 0.15 0
0.2 0.15 0
0.2 0.1 0
0.25 0.1 0
0.2 0.15 0
0.25 0.15 0
0.25 0.1 0
0.3 0.1 0
0.25 0.15 0
0.3 0.15 0
0.3 0.1 0
0.35 0.1 0
0.3 0.15 0
0.35 0.15 0
0.35 0.1 0
0.4 0.1 0
0.35 0.15 0
0.4 0.15 0
0.4 0.1 0
0.45 0.1 0
0.4 0.15 0
0.45 0.15 0
0.45 0.1 0
0.5 0.1 0
0.45 0.15 0
0.5 0.15 0
0.5 0.1 0
0.55 0.1 0
0.5 0.15 0
0.55 0.15 0
0.55 0.1 0
0.6 0.1 0
0.55 0.15 0
0.6 0.15 0
0.6 0.1 0
0.65 0.1 0
0.6 0.15 0
0.65 0.15 0
0.65 0.1 0
0.7 0.1 0
0.65 0.15 0
0.7 0.15 0
0.7 0.1 0
0.75 0.1 0
0.7 0.15 0
0.75 0.15 0
0.75 0.1 0
0.8 0.1 0
0.75 0.15 0
0.8 0.15 0
0.8 0.1 0
0.85 0.1 0
0.8 0.15 0
0.85 0.15 0
0.85 0.1 0
0.9 0.1 0
0.85 0.15 0
0.9 0.15 0
0.9 0.1 0
0.95 0.1 0
0.9 0.15 0
0.95 0.15 0
0.95 0.1 0
1 0.1 0
0.95 0.15 0
1 0.15 0
1 0.1 0
1.05 0.1 0
1 0.15 0
1.05 0.15 0
1.05 0.1 0
1.1 0.1 0
1.05 0.15 0
1.1 0.15 0
1.1 0.1 0
1.15 0.1 0
1.1 0.15 0
1.15 0.15 0
1.15 0.1 0
1.2 0.1 0
1.15 0.15 0
1.2 0.15 0
1.2 0.1 0
1.25 0.1 0
1.2 0.15 0
1.25 0.15 0
1.25 0.1 0
1.3 0.1 0
1.25 0.15 0
1.3 0.15 0
1.3 0.1 0
1.35 0.1 0
1.3 0.15 0
1.35 0.15 0
1.35 0.1 0
1.4 0.1 0
1.35 0.15 0
1.4 0.15 0
1.4 0.1 0
1.45 0.1 0
1.4 0.15 0
1.45 0.15 0
1.45 0.1 0
1.5 0.1 0
1.45 0.15 0
1.5 0.15 0
1.5 0.1 0
1.55 0.1 0
1.5 0.15 0
1.55 0.15 0
1.55 0.1 0
1.6 0.1 0
1.55 0.15 0
1.6 0.15 0
1.6 0.1 0
1.65 0.1 0
1.6 0.15 0
1.65 0.15 0
1.65 0.1 0
1.7 0.1 0
1.65 0.15 0
1.7 0.15 0
1.7 0.1 0
1.75 0.1 0
1.7 0.15 0
1.75 0.15 0
1.75 0.1 0
1.8 0.1 0
1.75 0.15 0
1.8 0.15 0
1.8 0.1 0
1.85 0.1 0
1.8 0.15 0
1.85 0.15 0
1.85 0.1 0
1.9 0.1 0
1.85 0.15 0
1.9 0.15 0
1.9 0.1 0
1.95 0.1 0
1.9 0.15 0
1.95 0.15 0
1.95 0.1 0
2 0.1 0
1.95 0.15 0
2 0.15 0
0 0.15 0
0.05 0.15 0
0 0.2 0
0.05 0.2 0
0.05 0.15 0
0.1 0.15 0
0.05 0.2 0
0.1 0.2 0
0.1 0.15 0
0.15 0.15 0
0.1 0.2 0
0.15 0.2 0
0.15 0.15 0
0.2 0.15 0
0.15 0.2 0
0.2 0.2 0
0.2 0.15 0
0.25 0.15 0
0.2 0.2 0
0.25 0.2 0
0.25 0.15 0
0.3 0.15 0
0.25 0.2 0
0.3 0.2 0
0.3 0.15 0
0.35 0.15 0
0.3 0.2 0
0.35 0.2 0
0.35 0.15 0
0.4 0.15 0
0.35 0.2 0
0.4 0.2 0
0.4 0.15 0
0.45 0.15 0
0.4 0.2 0
0.45 0.2 0
0.45 0.15 0
0.5 0.15 0
0.45 0.2 0
0.5 0.2 0
0.5 0.15 0
0.55 0.15 0
0.5 0.2 0
0.55 0.2 0
0.55 0.15 0
0.6 0.15 0
0.55 0.2 0
0.6 0.2 0
0.6 0.15 0
0.65 0.15 0
0.6 0.2 0
0.65 0.2 0
0.65 0.15 0
0.7 0.15 0
0.65 0.2 0
0.7 0.2 0
0.7 0.15 0
0.75 0.15 0
0.7 0.2 0
0.75 0.2 0
0.75 0.15 0
0.8 0.15 0
0.75 0.2 0
0.8 0.2 0
0.8 0.15 0
0.85 0.15 0
0.8 0.2 0
0.85 0.2 0
0.85 0.15 0
0.9 0.15 0
0.85 0.2 0
0.9 0.2 0
0.9 0.15 0
0.95 0.15 0
0.9 0.2 0
0.95 0.2 0
0.95 0.15 0
1 0.15 0
0.95 0.2 0
1 0.2 0
1 0.15 0
1.05 0.15 0
1 0.2 0
1.05 0.2 0
1.05 0.15 0
1.1 0.15 0
1.05 0.2 0
1.1 0.2 0
1.1 0.15 0
1.15 0.15 0
1.1 0.2 0
1.15 0.2 0
1.15 0.15 0
1.2 0.15 0
1.15 0.2 0
1.2 0.2 0
1.2 0.15 0
1.25 0.15 0
1.2 0.2 0
1.25 0.2 0
1.25 0.15 0
1.3 0.15 0
1.25 0.2 0
1.3 0.2 0
1.3 0.15 0
1.35 0.15 0
1.3 0.2 0
1.35 0.2 0
1.35 0.15 0
1.4 0.15 0
1.35 0.2 0
1.4 0.2 0
1.4 0.15 0
1.45 0.15 0
1.4 0.2 0
1.45 0.2 0
1.45 0.15 0
1.5 0.15 0
1.45 0.2 0
1.5 0.2 0
1.5 0.15 0
1.55 0.15 0
1.5 0.2 0
1.55 0.2 0
1.55 0.15 0
1.6 0.15 0
1.55 0.2 0
1.6 0.2 0
1.6 0.15 0
1.65 0.15 0
1.6 0.2 0
1.65 0.2 0
1.65 0.15 0
1.7 0.15 0
1.65 0.2 0
1.7 0.2 0
1.7 0.15 0
1.75 0.15 0
1.7 0.2 0
1.75 0.2 0
1.75 0.15 0
1.8 0.15 0
1.75 0.2 0
1.8 0.2 0
1.8 0.15 0
1.85 0.15 0
1.8 0.2 0
1.85 0.2 0
1.85 0.15 0
1.9 0.15 0
1.85 0.2 0
1.9 0.2 0
1.9 0.15 0
1.95 0.15 0
1.9 0.2 0
1.95 0.2 0
1.95 0.15 0
2 0.15 0
1.95 0.2 0
2 0.2 0
0 0.2 0
0.05 0.2 0
0 0.25 0
0.05 0.25 0
0.05 0.2 0
0.1 0.2 0
0.05 0.25 0
0.1 0.25 0
0.1 0.2 0
0.15 0.2 0
0.1 0.25 0
0.15 0.25 0
0.15 0.2 0
0.2 0.2 0
0.15 0.25 0
0.2 0.25 0
0.2 0.2 0
0.25 0.2 0
0.2 0.25 0
0.25 0.25 0
0.25 0.2 0
0.3 0.2 0
0.25 0.25 0
0.3 0.25 0
0.3 0.2 0
0.35 0.2 0
0.3 0.25 0
0.35 0.25 0
0.35 0.2 0
0.4 0.2 0
0.35 0.25 0
0.4 0.25 0
0.4 0.2 0
0.45 0.2 0
0.4 0.25 0
0.45 0.25 0
0.45 0.2 0
0.5 0.2 0
0.45 0.25 0
0.5 0.25 0
0.5 0.2 0
0.55 0.2 0
0.5 0.25 0
0.55 0.25 0
0.55 0.2 0
0.6 0.2 0
0.55 0.25 0
0.6 0.25 0
0.6 0.2 0
0.65 0.2 0
0.6 0.25 0
0.65 0.25 0
0.65 0.2 0
0.7 0.2 0
0.65 0.25 0
0.7 0.25 0
0.7 0.2 0
0.75 0.2 0
0.7 0.25 0
0.75 0.25 0
0.75 0.2 0
0.8 0.2 0
0.75 0.25 0
0.8 0.25 0
0.8 0.2 0
0.85 0.2 0
0.8 0.25 0
0.85 0.25 0
0.85 0.2 0
0.9 0.2 0
0.85 0.25 0
0.9 0.25 0
0.9 0.2 0
0.95 0.2 0
0.9 0.25 0
0.95 0.25 0
0.95 0.2 0
1 0.2 0
0.95 0.25 0
1 0.25 0
1 0.2 0
1.05 0.2 0
1 0.25 0
1.05 0.25 0
1.05 0.2 0
1.1 0.2 0
1.05 0.25 0
1.1 0.25 0
1.1 0.2 0
1.15 0.2 0
1.1 0.25 0
1.15 0.25 0
1.15 0.2 0
1.2 0.2 0
1.15 0.25 0
1.2 0.25 0
1.2 0.2 0
1.25 0.2 0
1.2 0.25 0
1.25 0.25 0
1.25 0.2 0
1.3 0.2 0
1.25 0.25 0
1.3 0.25 0
1.3 0.2 0
1.35 0.2 0
1.3 0.25 0
1.35 0.25 0
1.35 0.2 0
1.4 0.2 0
1.35 0.25 0
1.4 0.25 0
1.4 0.2 0
1.45 0.2 0
1.4 0.25 0
1.45 0.25 0
1.45 0.2 0
1.5 0.2 0
1.45 0.25 0
1.5 0.25 0
1.5 0.2 0
1.55 0.2 0
1.5 0.25 0
1.55 0.25 0
1.55 0.2 0
1.6 0.2 0
1.55 0.25 0
1.6 0.25 0
1.6 0.2 0
1.65 0.2 0
1.6 0.25 0
1.65 0.25 0
1.65 0.2 0
1.7 0.2 0
1.65 0.25 0
1.7 0.25 0
1.7 0.2 0
1.75 0.2 0
1.7 0.25 0
1.75 0.25 0
1.75 0.2 0
1.8 0.2 0
1.75 0.25 0
1.8 0.25 0
1.8 0.2 0
1.85 0.2 0
1.8 0.25 0
1.85 0.25 0
1.85 0.2 0
1.9 0.2 0
1.85 0.25 0
1.9 0.25 0
1.9 0.2 0
1.95 0.2 0
1.9 0.25 0
1.95 0.25 0
1.95 0.2 0
2 0.2 0
1.95 0.25 0
2 0.25 0
0 0.25 0
0.05 0.25 0
0 0.3 0
0.05 0.3 0
0.05 0.25 0
0.1 0.25 0
0.05 0.3 0
0.1 0.3 0
0.1 0.25 0
0.15 0.25 0
0.1 0.3 0
0.15 0.3 0
0.15 0.25 0
0.2 0.25 0
0.15 0.3 0
0.2 0.3 0
0.2 0.25 0
0.25 0.25 0
0.2 0.3 0
0.25 0.3 0
0.25 0.25 0
0.3 0.25 0
0.25 0.3 0
0.3 0.3 0
0.3 0.25 0
0.35 0.25 0
0.3 0.3 0
0.35 0.3 0
0.35 0.25 0
0.4 0.25 0
0.35 0.3 0
0.4 0.3 0
0.4 0.25 0
0.45 0.25 0
0.4 0.3 0
0.45 0.3 0
0.45 0.25 0
0.5 0.25 0
0.45 0.3 0
0.5 0.3 0
0.5 0.25 0
0.55 0.25 0
0.5 0.3 0
0.55 0.3 0
0.55 0.25 0
0.6 0.25 0
0.55 0.3 0
0.6 0.3 0
0.6 0.25 0
0.65 0.25 0
0.6 0.3 0
0.65 0.3 0
0.65 0.25 0
0.7 0.25 0
0.65 0.3 0
0.7 0.3 0
0.7 0.25 0
0.75 0.25 0
0.7 0.3 0
0.75 0.3 0
0.75 0.25 0
0.8 0.25 0
0.75 0.3 0
0.8 0.3 0
0.8 0.25 0
0.85 0.25 0
0.8 0.3 0
0.85 0.3 0
0.85 0.25 0
0.9 0.25 0
0.85 0.3 0
0.9 0.3 0
0.9 0.25 0
0.95 0.25 0
0.9 0.3 0
0.95 0.3 0
0.95 0.25 0
1 0.25 0
0.95 0.3 0
1 0.3 0
1 0.25 0
1.05 0.25 0
1 0.3 0
1.05 0.3 0
1.05 0.25 0
1.1 0.25 0
1.05 0.3 0
1.1 0.3 0
1.1 0.25 0
1.15 0.25 0
1.1 0.3 0
1.15 0.3 0
1.15 0.25 0
1.2 0.25 0
1.15 0.3 0
1.2 0.3 0
1.2 0.25 0
1.25 0.25 0
1.2 0.3 0
1.25 0.3 0
1.25 0.25 0
1.3 0.25 0
1.25 0.3 0
1.3 0.3 0
1.3 0.25 0
1.35 0.25 0
1.3 0.3 0
1.35 0.3 0
1.35 0.25 0
1.4 0.25 0
1.35 0.3 0
1.4 0.3 0
1.4 0.25 0
1.45 0.25 0
1.4 0.3 0
1.45 0.3 0
1.45 0.25 0
1.5 0.25 0
[...]
POINT_DATA 3200
SCALARS x_displacement double 1
LOOKUP_TABLE default
0 -2.08763 0 -0.988836 -2.08763 -3.56981 -0.988836 -2.09754 -3.56981 -4.69409 -2.09754 -3.06726 -4.69409 -5.63784 -3.06726 -3.90149 -5.63784 -6.48753 -3.90149 -4.64993 -6.48753 -7.28462 -4.64993 -5.36553 -7.28462 -8.05724 -5.36553 -6.07708 -8.05724 -8.82468 -6.07708 -6.79536 -8.82468 -9.59754 -6.79536 -7.52327 -9.59754 -10.3803 -7.52327 -8.26073 -10.3803 -11.1742 -8.26073 -9.00579 -11.1742 -11.9786 -9.00579 -9.75467 -11.9786 -12.7922 -9.75467 -10.5022 -12.7922 -13.6134 -10.5022 -11.2423 -13.6134 -14.4418 -11.2423 -11.9686 -14.4418 -15.2785 -11.9686 -12.6751 -15.2785 -16.1262 -12.6751 -13.3672 -16.1262 -16.9869 -13.3672 -14.0665 -16.9869 -17.8559 -14.0665 -14.7764 -17.8559 -18.7223 -14.7764 -15.4895 -18.7223 -19.5671 -15.4895 -16.1941 -19.5671 -20.3634 -16.1941 -16.8752 -20.3634 -21.0754 -16.8752 -17.5151 -21.0754 -21.6638 -17.5151 -18.0889 -21.6638 -22.1417 -18.0889 -18.6134 -22.1417 -22.6241 -18.6134 -19.1856 -22.6241 -23.1465 -19.1856 -19.813 -23.1465 -23.6953 -19.813 -20.4066 -23.6953 -24.2393 -20.4066 -20.9752 -24.2393 -24.7273 -20.9752 -21.532 -24.7273 -25.1144 -21.532 -22.0444 -25.1144 -25.4547 -22.0444 -22.4507 -25.4547 -25.9064 -22.4507 -22.6908 -25.9064 -26.5109 -22.6908 -22.9402 -26.5109 -26.7464 -22.9402 -23.2007 -26.7464 -26.7696 -23.2007 -23.3006 -26.7696 -26.6877 -23.3006 -23.3507 -26.6877 -26.6048 -23.3507 -23.3511 -26.6048 -26.5556 -23.3511 -23.3455 -26.5556 -26.544 -23.3455 -23.348 0 -0.988836 0 -0.292044 -0.988836 -2.09754 -0.292044 -1.06734 -2.09754 -3.06726 -1.06734 -1.79911 -3.06726 -3.90149 -1.79911 -2.38372 -3.90149 -4.64993 -2.38372 -2.9263 -4.64993 -5.36553 -2.9263 -3.49493 -5.36553 -6.07708 -3.49493 -4.11069 -6.07708 -6.79536 -4.11069 -4.76327 -6.79536 -7.52327 -4.76327 -5.43971 -7.52327 -8.26073 -5.43971 -6.13319 -8.26073 -9.00579 -6.13319 -6.83699 -9.00579 -9.75467 -6.83699 -7.54257 -9.75467 -10.5022 -7.54257 -8.23907 -10.5022 -11.2423 -8.23907 -8.91416 -11.2423 -11.9686 -8.91416 -9.55566 -11.9686 -12.6751 -9.55566 -10.1539 -12.6751 -13.3672 -10.1539 -10.7175 -13.3672 -14.0665 -10.7175 -11.2796 -14.0665 -14.7764 -11.2796 -11.8499 -14.7764 -15.4895 -11.8499 -12.4258 -15.4895 -16.1941 -12.4258 -13.0029 -16.1941 -16.8752 -13.0029 -13.5754 -16.8752 -17.5151 -13.5754 -14.14 -17.5151 -18.0889 -14.14 -14.6984 -18.0889 -18.6134 -14.6984 -15.2635 -18.6134 -19.1856 -15.2635 -15.8565 -19.1856 -19.813 -15.8565 -16.4467 -19.813 -20.4066 -16.4467 -17.0008 -20.4066 -20.9752 -17.0008 -17.5675 -20.9752 -21.532 -17.5675 -18.1313 -21.532 -22.0444 -18.1313 -18.6566 -22.0444 -22.4507 -18.6566 -19.1176 -22.4507 -22.6908 -19.1176 -19.4969 -22.6908 -22.9402 -19.4969 -19.7406 -22.9402 -23.2007 -19.7406 -19.8782 -23.2007 -23.3006 -19.8782 -20.0866 -23.3006 -23.3507 -20.0866 -20.102 -23.3507 -23.3511 -20.102 -20.13 -23.3511 -23.3455 -20.13 -20.1472 -23.3455 -23.348 -20.1472 -20.1588 0 -0.292044 0 0.245903 -0.292044 -1.06734 0.245903 -0.265384 -1.06734 -1.79911 -0.265384 -0.701799 -1.79911 -2.38372 -0.701799 -1.12784 -2.38372 -2.9263 -1.12784 -1.55161 -2.9263 -3.49493 -1.55161 -1.99452 -3.49493 -4.11069 -1.99452 -2.48599 -4.11069 -4.76327 -2.48599 -3.04493 -4.76327 -5.43971 -3.04493 -3.66839 -5.43971 -6.13319 -3.66839 -4.34413 -6.13319 -6.83699 -4.34413 -5.06174 -6.83699 -7.54257 -5.06174 -5.80939 -7.54257 -8.23907 -5.80939 -6.56705 -8.23907 -8.91416 -6.56705 -7.299 -8.91416 -9.55566 -7.299 -7.96594 -9.55566 -10.1539 -7.96594 -8.55281 -10.1539 -10.7175 -8.55281 -9.07561 -10.7175 -11.2796 -9.07561 -9.55448 -11.2796 -11.8499 -9.55448 -9.99632 -11.8499 -12.4258 -9.99632 -10.4034 -12.4258 -13.0029 -10.4034 -10.7723 -13.0029 -13.5754 -10.7723 -11.1019 -13.5754 -14.14 -11.1019 -11.4065 -14.14 -14.6984 -11.4065 -11.7221 -14.6984 -15.2635 -11.7221 -12.089 -15.2635 -15.8565 -12.089 -12.5273 -15.8565 -16.4467 -12.5273 -13.0324 -16.4467 -17.0008 -13.0324 -13.5858 -17.0008 -17.5675 -13.5858 -14.1617 -17.5675 -18.1313 -14.1617 -14.7148 -18.1313 -18.6566 -14.7148 -15.2415 -18.6566 -19.1176 -15.2415 -15.7421 -19.1176 -19.4969 -15.7421 -16.1699 -19.4969 -19.7406 -16.1699 -16.5021 -19.7406 -19.8782 -16.5021 -16.7302 -19.8782 -20.0866 -16.7302 -16.8418 -20.0866 -20.102 -16.8418 -17.018 -20.102 -20.13 -17.018 -17.0138 -20.13 -20.1472 -17.0138 -17.0239 -20.1472 -20.1588 -17.0239 -17.0667 0 0.245903 0 0.724256 0.245903 -0.265384 0.724256 0.535113 -0.265384 -0.701799 0.535113 0.13979 -0.701799 -1.12784 0.13979 -0.273272 -1.12784 -1.55161 -0.273272 -0.682414 -1.55161 -1.99452 -0.682414 -1.10432 -1.99452 -2.48599 -1.10432 -1.57097 -2.48599 -3.04493 -1.57097 -2.11629 -3.04493 -3.66839 -2.11629 -2.7527 -3.66839 -4.34413 -2.7527 -3.46397 -4.34413 -5.06174 -3.46397 -4.22221 -5.06174 -5.80939 -4.22221 -4.99875 -5.80939 -6.56705 -4.99875 -5.75919 -6.56705 -7.299 -5.75919 -6.46137 -7.299 -7.96594 -6.46137 -7.06964 -7.96594 -8.55281 -7.06964 -7.5743 -8.55281 -9.07561 -7.5743 -7.98702 -9.07561 -9.55448 -7.98702 -8.32712 -9.55448 -9.99632 -8.32712 -8.61072 -9.99632 -10.4034 -8.61072 -8.84737 -10.4034 -10.7723 -8.84737 -9.04512 -10.7723 -11.1019 -9.04512 -9.21464 -11.1019 -11.4065 -9.21464 -9.37063 -11.4065 -11.7221 -9.37063 -9.52583 -11.7221 -12.089 -9.52583 -9.67449 -12.089 -12.5273 -9.67449 -9.79929 -12.5273 -13.0324 -9.79929 -9.95134 -13.0324 -13.5858 -9.95134 -10.2778 -13.5858 -14.1617 -10.2778 -10.7768 -14.1617 -14.7148 -10.7768 -11.3314 -14.7148 -15.2415 -11.3314 -11.8872 -15.2415 -15.7421 -11.8872 -12.4018 -15.7421 -16.1699 -12.4018 -12.8698 -16.1699 -16.5021 -12.8698 -13.2728 -16.5021 -16.7302 -13.2728 -13.5815 -16.7302 -16.8418 -13.5815 -13.7863 -16.8418 -17.018 -13.7863 -13.8564 -17.018 -17.0138 -13.8564 -13.9385 -17.0138 -17.0239 -13.9385 -14.1065 -17.0239 -17.0667 -14.1065 -14.0644 0 0.724256 0 1.39313 0.724256 0.535113 1.39313 0.98716 0.535113 0.13979 0.98716 0.646818 0.13979 -0.273272 0.646818 0.321658 -0.273272 -0.682414 0.321658 -0.0246253 -0.682414 -1.10432 -0.0246253 -0.402509 -1.10432 -1.57097 -0.402509 -0.828454 -1.57097 -2.11629 -0.828454 -1.32101 -2.11629 -2.7527 -1.32101 -1.89402 -2.7527 -3.46397 -1.89402 -2.54186 -3.46397 -4.22221 -2.54186 -3.23641 -4.22221 -4.99875 -3.23641 -3.94457 -4.99875 -5.75919 -3.94457 -4.6353 -5.75919 -6.46137 -4.6353 -5.27794 -6.46137 -7.06964 -5.27794 -5.84398 -7.06964 -7.5743 -5.84398 -6.31421 -7.5743 -7.98702 -6.31421 -6.68209 -7.98702 -8.32712 -6.68209 -6.95325 -8.32712 -8.61072 -6.95325 -7.14313 -8.61072 -8.84737 -7.14313 -7.27093 -8.84737 -9.04512 -7.27093 -7.35627 -9.04512 -9.21464 -7.35627 -7.41976 -9.21464 -9.37063 -7.41976 -7.48098 -9.37063 -9.52583 -7.48098 -7.55242 -9.52583 -9.67449 -7.55242 -7.6377 -9.67449 -9.79929 -7.6377 -7.73498 -9.79929 -9.95134 -7.73498 -7.81867 -9.95134 -10.2778 -7.81867 -7.81427 -10.2778 -10.7768 -7.81427 -7.79108 -10.7768 -11.3314 -7.79108 -8.07595 -11.3314 -11.8872 -8.07595 -8.5893 -11.8872 -12.4018 -8.5893 -9.1415 -12.4018 -12.8698 -9.1415 -9.67037 -12.8698 -13.2728 -9.67037 -10.1252 -13.2728 -13.5815 -10.1252 -10.5201 -13.5815 -13.7863 -10.5201 -10.8258 -13.7863 -13.8564 -10.8258 -11.0346 -13.8564 -13.9385 -11.0346 -11.1333 -13.9385 -14.1065 -11.1333 -11.1371 -14.1065 -14.0644 -11.1371 -11.558 0 1.39313 0 1.47015 1.39313 0.98716 1.47015 1.35702 0.98716 0.646818 1.35702 1.03962 0.646818 0.321658 1.03962 0.758535 0.321658 -0.0246253 0.758535 0.464257 -0.0246253 -0.402509 0.464257 0.141196 -0.402509 -0.828454 0.141196 -0.219605 -0.828454 -1.32101 -0.219605 -0.631548 -1.32101 -1.89402 -0.631548 -1.10827 -1.89402 -2.54186 -1.10827 -1.65218 -2.54186 -3.23641 -1.65218 -2.24721 -3.23641 -3.94457 -2.24721 -2.86185 -3.94457 -4.6353 -2.86185 -3.46425 -4.6353 -5.27794 -3.46425 -4.02998 -5.27794 -5.84398 -4.02998 -4.54046 -5.84398 -6.31421 -4.54046 -4.97537 -6.31421 -6.68209 -4.97537 -5.31472 -6.68209 -6.95325 -5.31472 -5.55034 -6.95325 -7.14313 -5.55034 -5.68905 -7.14313 -7.27093 -5.68905 -5.75116 -7.27093 -7.35627 -5.75116 -5.76426 -7.35627 -7.41976 -5.76426 -5.75596 -7.41976 -7.48098 -5.75596 -5.74847 -7.48098 -7.55242 -5.74847 -5.75653 -7.55242 -7.6377 -5.75653 -5.78763 -7.6377 -7.73498 -5.78763 -5.83985 -7.73498 -7.81867 -5.83985 -5.89885 -7.81867 -7.81427 -5.89885 -5.9511 -7.81427 -7.79108 -5.9511 -5.94849 -7.79108 -8.07595 -5.94849 -5.77119 -8.07595 -8.5893 -5.77119 -5.67053 -8.5893 -9.1415 -5.67053 -6.04035 -9.1415 -9.67037 -6.04035 -6.5793 -9.67037 -10.1252 -6.5793 -7.12378 -10.1252 -10.5201 -7.12378 -7.60758 -10.5201 -10.8258 -7.60758 -8.02337 -10.8258 -11.0346 -8.02337 -8.34957 -11.0346 -11.1333 -8.34957 -8.60343 -11.1333 -11.1371 -8.60343 -8.82139 -11.1371 -11.558 -8.82139 -8.82358 0 1.47015 0 1.67045 1.47015 1.35702 1.67045 1.53474 1.35702 1.03962 1.53474 1.20316 1.03962 0.758535 1.20316 0.979591 0.758535 0.464257 0.979591 0.771855 0.464257 0.141196 0.771855 0.543061 0.141196 -0.219605 0.543061 0.276701 -0.219605 -0.631548 0.276701 -0.0384623 -0.631548 -1.10827 -0.0384623 -0.41257 -1.10827 -1.65218 -0.41257 -0.848692 -1.65218 -2.24721 -0.848692 -1.33389 -2.24721 -2.86185 -1.33389 -1.8418 -2.86185 -3.46425 -1.8418 -2.34466 -3.46425 -4.02998 -2.34466 -2.82127 -4.02998 -4.54046 -2.82127 -3.25519 -4.54046 -4.97537 -3.25519 -3.63026 -4.97537 -5.31472 -3.63026 -3.92721 -5.31472 -5.55034 -3.92721 -4.12926 -5.55034 -5.68905 -4.12926 -4.23603 -5.68905 -5.75116 -4.23603 -4.26494 -5.75116 -5.76426 -4.26494 -4.24349 -5.76426 -5.75596 -4.24349 -4.2003 -5.75596 -5.74847 -4.2003 -4.15907 -5.74847 -5.75653 -4.15907 -4.13597 -5.75653 -5.78763 -4.13597 -4.13842 -5.78763 -5.83985 -4.13842 -4.16464 -5.83985 -5.89885 -4.16464 -4.20668 -5.89885 -5.9511 -4.20668 -4.24742 -5.9511 -5.94849 -4.24742 -4.25627 -5.94849 -5.77119 -4.25627 -4.22023 -5.77119 -5.67053 -4.22023 -4.06047 -5.67053 -6.04035 -4.06047 -3.74672 -6.04035 -6.5793 -3.74672 -3.82395 -6.5793 -7.12378 -3.82395 -4.32082 -7.12378 -7.60758 -4.32082 -4.8892 -7.60758 -8.02337 -4.8892 -5.41356 -8.02337 -8.34957 -5.41356 -5.82094 -8.34957 -8.60343 -5.82094 -6.21518 -8.60343 -8.82139 -6.21518 -6.54101 -8.82139 -8.82358 -6.54101 -6.89318 0 1.67045 0 0.555976 1.67045 1.53474 0.555976 1.49869 1.53474 1.20316 1.49869 1.27945 1.20316 0.979591 1.27945 1.08741 0.979591 0.771855 1.08741 0.957696 0.771855 0.543061 0.957696 0.822949 0.543061 0.276701 0.822949 0.650116 0.276701 -0.0384623 0.650116 0.422377 -0.0384623 -0.41257 0.422377 0.133473 -0.41257 -0.848692 0.133473 -0.2098 -0.848692 -1.33389 -0.2098 -0.589658 -1.33389 -1.8418 -0.589658 -0.984127 -1.8418 -2.34466 -0.984127 -1.37228 -2.34466 -2.82127 -1.37228 -1.73767 -2.82127 -3.25519 -1.73767 -2.06795 -3.25519 -3.63026 -2.06795 -2.35119 -3.63026 -3.92721 -2.35119 -2.57426 -3.92721 -4.12926 -2.57426 -2.72568 -4.12926 -4.23603 -2.72568 -2.80254 -4.23603 -4.26494 -2.80254 -2.81568 -4.26494 -4.24349 -2.81568 -2.78591 -4.24349 -4.2003 -2.78591 -2.73674 -4.2003 -4.15907 -2.73674 -2.689 -4.15907 -4.13597 -2.689 -2.65769 -4.13597 -4.13842 -2.65769 -2.65027 -4.13842 -4.16464 -2.65027 -2.66653 -4.16464 -4.20668 -2.66653 -2.6986 -4.20668 -4.24742 -2.6986 -2.73178 -4.24742 -4.25627 -2.73178 -2.74989 -4.25627 -4.22023 -2.74989 -2.72729 -4.22023 -4.06047 -2.72729 -2.64195 -4.06047 -3.74672 -2.64195 -2.50418 -3.74672 -3.82395 -2.50418 -2.25636 -3.82395 -4.32082 -2.25636 -2.1438 -4.32082 -4.8892 -2.1438 -2.51728 -4.8892 -5.41356 -2.51728 -3.02534 -5.41356 -5.82094 -3.02534 -3.50239 -5.82094 -6.21518 -3.50239 -3.95445 -6.21518 -6.54101 -3.95445 -4.34649 -6.54101 -6.89318 -4.34649 -4.67368 0 0.555976 0 0.282468 0.555976 1.49869 0.282468 0.539339 1.49869 1.27945 0.539339 1.14435 1.27945 1.08741 1.14435 0.991562 1.08741 0.957696 0.991562 0.913927 0.957696 0.822949 0.913927 0.837331 0.822949 0.650116 0.837331 0.718106 0.650116 0.422377 0.718106 0.547756 0.422377 0.133473 0.547756 0.337051 0.133473 -0.2098 0.337051 0.103282 -0.2098 -0.589658 0.103282 -0.137998 -0.589658 -0.984127 -0.137998 -0.375753 -0.984127 -1.37228 -0.375753 -0.602093 -1.37228 -1.73767 -0.602093 -0.810365 -1.73767 -2.06795 -0.810365 -0.994737 -2.06795 -2.35119 -0.994737 -1.14981 -2.35119 -2.57426 -1.14981 -1.27023 -2.57426 -2.72568 -1.27023 -1.35155 -2.72568 -2.80254 -1.35155 -1.39258 -2.80254 -2.81568 -1.39258 -1.39801 -2.81568 -2.78591 -1.39801 -1.37836 -2.78591 -2.73674 -1.37836 -1.34684 -2.73674 -2.689 -1.34684 -1.31592 -2.689 -2.65769 -1.31592 -1.29494 -2.65769 -2.65027 -1.29494 -1.28874 -2.65027 -2.66653 -1.28874 -1.29699 -2.66653 -2.6986 -1.29699 -1.31503 -2.6986 -2.73178 -1.31503 -1.33597 -2.73178 -2.74989 -1.33597 -1.3502 -2.74989 -2.72729 -1.3502 -1.34601 -2.72729 -2.64195 -1.34601 -1.31294 -2.64195 -2.50418 -1.31294 -1.23338 -2.50418 -2.25636 -1.23338 -1.12452 -2.25636 -2.1438 -1.12452 -1.01053 -2.1438 -2.51728 -1.01053 -0.947988 -2.51728 -3.02534 -0.947988 -1.1274 -3.02534 -3.50239 -1.1274 -1.47988 -3.50239 -3.95445 -1.47988 -1.84964 -3.95445 -4.34649 -1.84964 -2.30299 -4.34649 -4.67368 -2.30299 -2.40746 0 0.282468 0 8.52535e-10 0.282468 0.539339 8.52535e-10 5.1088e-10 0.539339 1.14435 5.1088e-10 2.04715e-09 1.14435 0.991562 2.04715e-09 -4.36139e-11 0.991562 0.913927 -4.36139e-11 -1.19677e-11 0.913927 0.837331 -1.19677e-11 -1.20352e-11 0.837331 0.718106 -1.20352e-11 -1.18983e-11 0.718106 0.547756 -1.18983e-11 -9.15224e-12 0.547756 0.337051 -9.15224e-12 -6.25154e-12 0.337051 0.103282 -6.25154e-12 -2.61169e-12 0.103282 -0.137998 -2.61169e-12 5.42352e-13 -0.137998 -0.375753 5.42352e-13 3.32038e-12 -0.375753 -0.602093 3.32038e-12 6.76755e-12 -0.602093 -0.810365 6.76755e-12 9.39829e-12 -0.810365 -0.994737 9.39829e-12 1.08354e-11 -0.994737 -1.14981 1.08354e-11 1.24578e-11 -1.14981 -1.27023 1.24578e-11 1.26571e-11 -1.27023 -1.35155 1.26571e-11 1.22479e-11 -1.35155 -1.39258 1.22479e-11 1.18848e-11 -1.39258 -1.39801 1.18848e-11 1.15001e-11 -1.39801 -1.37836 1.15001e-11 1.06261e-11 -1.37836 -1.34684 1.06261e-11 1.05302e-11 -1.34684 -1.31592 1.05302e-11 9.5083e-12 -1.31592 -1.29494 9.5083e-12 8.33312e-12 -1.29494 -1.28874 8.33312e-12 8.20556e-12 -1.28874 -1.29699 8.20556e-12 7.33833e-12 -1.29699 -1.31503 7.33833e-12 6.19182e-12 -1.31503 -1.33597 6.19182e-12 4.56891e-12 -1.33597 -1.3502 4.56891e-12 3.37777e-12 -1.3502 -1.34601 3.37777e-12 3.46635e-12 -1.34601 -1.31294 3.46635e-12 5.37477e-12 -1.31294 -1.23338 5.37477e-12 8.10481e-12 -1.23338 -1.12452 8.10481e-12 1.36186e-11 -1.12452 -1.01053 1.36186e-11 2.51108e-11 -1.01053 -0.947988 2.51108e-11 3.18893e-11 -0.947988 -1.1274 3.18893e-11 3.44741e-11 -1.1274 -1.47988 3.44741e-11 3.22989e-11 -1.47988 -1.84964 3.22989e-11 2.96288e-11 -1.84964 -2.30299 2.96288e-11 2.81156e-11 -2.30299 -2.40746 2.81156e-11 2.7478e-11 0 8.52535e-10 0 -0.282468 8.52535e-10 5.1088e-10 -0.282468 -0.539339 5.1088e-10 2.04715e-09 -0.539339 -1.14435 2.04715e-09 -4.36139e-11 -1.14435 -0.991562 -4.36139e-11 -1.19677e-11 -0.991562 -0.913927 -1.19677e-11 -1.20352e-11 -0.913927 -0.837331 -1.20352e-11 -1.18983e-11 -0.837331 -0.718106 -1.18983e-11 -9.15224e-12 -0.718106 -0.547756 -9.15224e-12 -6.25154e-12 -0.547756 -0.337051 -6.25154e-12 -2.61169e-12 -0.337051 -0.103282 -2.61169e-12 5.42352e-13 -0.103282 0.137998 5.42352e-13 3.32038e-12 0.137998 0.375753 3.32038e-12 6.76755e-12 0.375753 0.602093 6.76755e-12 9.39829e-12 0.602093 0.810365 9.39829e-12 1.08354e-11 0.810365 0.994737 1.08354e-11 1.24578e-11 0.994737 1.14981 1.24578e-11 1.26571e-11 1.14981 1.27023 1.26571e-11 1.22479e-11 1.27023 1.35155 1.22479e-11 1.18848e-11 1.35155 1.39258 1.18848e-11 1.15001e-11 1.39258 1.39801 1.15001e-11 1.06261e-11 1.39801 1.37836 1.06261e-11 1.05302e-11 1.37836 1.34684 1.05302e-11 9.5083e-12 1.34684 1.31592 9.5083e-12 8.33312e-12 1.31592 1.29494 8.33312e-12 8.20556e-12 1.29494 1.28874 8.20556e-12 7.33833e-12 1.28874 1.29699 7.33833e-12 6.19182e-12 1.29699 1.31503 6.19182e-12 4.56891e-12 1.31503 1.33597 4.56891e-12 3.37777e-12 1.33597 1.3502 3.37777e-12 3.46635e-12 1.3502 1.34601 3.46635e-12 5.37477e-12 1.34601 1.31294 5.37477e-12 8.10481e-12 1.31294 1.23338 8.10481e-12 1.36186e-11 1.23338 1.12452 1.36186e-11 2.51108e-11 1.12452 1.01053 2.51108e-11 3.18893e-11 1.01053 0.947988 3.18893e-11 3.44741e-11 0.947988 1.1274 3.44741e-11 3.22989e-11 1.1274 1.47988 3.22989e-11 2.96288e-11 1.47988 1.84964 2.96288e-11 2.81156e-11 1.84964 2.30299 2.81156e-11 2.7478e-11 2.30299 2.40746 0 -0.282468 0 -0.555976 -0.282468 -0.539339 -0.555976 -1.49869 -0.539339 -1.14435 -1.49869 -1.27945 -1.14435 -0.991562 -1.27945 -1.08741 -0.991562 -0.913927 -1.08741 -0.957696 -0.913927 -0.837331 -0.957696 -0.822949 -0.837331 -0.718106 -0.822949 -0.650116 -0.718106 -0.547756 -0.650116 -0.422377 -0.547756 -0.337051 -0.422377 -0.133473 -0.337051 -0.103282 -0.133473 0.2098 -0.103282 0.137998 0.2098 0.589658 0.137998 0.375753 0.589658 0.984127 0.375753 0.602093 0.984127 1.37228 0.602093 0.810365 1.37228 1.73767 0.810365 0.994737 1.73767 2.06795 0.994737 1.14981 2.06795 2.35119 1.14981 1.27023 2.35119 2.57426 1.27023 1.35155 2.57426 2.72568 1.35155 1.39258 2.72568 2.80254 1.39258 1.39801 2.80254 2.81568 1.39801 1.37836 2.81568 2.78591 1.37836 1.34684 2.78591 2.73674 1.34684 1.31592 2.73674 2.689 1.31592 1.29494 2.689 2.65769 1.29494 1.28874 2.65769 2.65027 1.28874 1.29699 2.65027 2.66653 1.29699 1.31503 2.66653 2.6986 1.31503 1.33597 2.6986 2.73178 1.33597 1.3502 2.73178 2.74989 1.3502 1.34601 2.74989 2.72729 1.34601 1.31294 2.72729 2.64195 1.31294 1.23338 2.64195 2.50418 1.23338 1.12452 2.50418 2.25636 1.12452 1.01053 2.25636 2.1438 1.01053 0.947988 2.1438 2.51728 0.947988 1.1274 2.51728 3.02534 1.1274 1.47988 3.02534 3.50239 1.47988 1.84964 3.50239 3.95445 1.84964 2.30299 3.95445 4.34649 2.30299 2.40746 4.34649 4.67368 0 -0.555976 0 -1.67045 -0.555976 -1.49869 -1.67045 -1.53474 -1.49869 -1.27945 -1.53474 -1.20316 -1.27945 -1.08741 -1.20316 -0.979591 -1.08741 -0.957696 -0.979591 -0.771855 -0.957696 -0.822949 -0.771855 -0.543061 -0.822949 -0.650116 -0.543061 -0.276701 -0.650116 -0.422377 -0.276701 0.0384623 -0.422377 -0.133473 0.0384623 0.41257 -0.133473 0.2098 0.41257 0.848692 0.2098 0.589658 0.848692 1.33389 0.589658 0.984127 1.33389 1.8418 0.984127 1.37228 1.8418 2.34466 1.37228 1.73767 2.34466 2.82127 1.73767 2.06795 2.82127 3.25519 2.06795 2.35119 3.25519 3.63026 2.35119 2.57426 3.63026 3.92721 2.57426 2.72568 3.92721 4.12926 2.72568 2.80254 4.12926 4.23603 2.80254 2.81568 4.23603 4.26494 2.81568 2.78591 4.26494 4.24349 2.78591 2.73674 4.24349 4.2003 2.73674 2.689 4.2003 4.15907 2.689 2.65769 4.15907 4.13597 2.65769 2.65027 4.13597 4.13842 2.65027 2.66653 4.13842 4.16464 2.66653 2.6986 4.16464 4.20668 2.6986 2.73178 4.20668 4.24742 2.73178 2.74989 4.24742 4.25627 2.74989 2.72729 4.25627 4.22023 2.72729 2.64195 4.22023 4.06047 2.64195 2.50418 4.06047 3.74672 2.50418 2.25636 3.74672 3.82395 2.25636 2.1438 3.82395 4.32082 2.1438 2.51728 4.32082 4.8892 2.51728 3.02534 4.8892 5.41356 3.02534 3.50239 5.41356 5.82094 3.50239 3.95445 5.82094 6.21518 3.95445 4.34649 6.21518 6.54101 4.34649 4.67368 6.54101 6.89318 0 -1.67045 0 -1.47015 -1.67045 -1.53474 -1.47015 -1.35702 -1.53474 -1.20316 -1.35702 -1.03962 -1.20316 -0.979591 -1.03962 -0.758535 -0.979591 -0.771855 -0.758535 -0.464257 -0.771855 -0.543061 -0.464257 -0.141196 -0.543061 -0.276701 -0.141196 0.219605 -0.276701 0.0384623 0.219605 0.631548 0.0384623 0.41257 0.631548 1.10827 0.41257 0.848692 1.10827 1.65218 0.848692 1.33389 1.65218 2.24721 1.33389 1.8418 2.24721 2.86185 1.8418 2.34466 2.86185 3.46425 2.34466 2.82127 3.46425 4.02998 2.82127 3.25519 4.02998 4.54046 3.25519 3.63026 4.54046 4.97537 3.63026 3.92721 4.97537 5.31472 3.92721 4.12926 5.31472 5.55034 4.12926 4.23603 5.55034 5.68905 4.23603 4.26494 5.68905 5.75116 4.26494 4.24349 5.75116 5.76426 4.24349 4.2003 5.76426 5.75596 4.2003 4.15907 5.75596 5.74847 4.15907 4.13597 5.74847 5.75653 4.13597 4.13842 5.75653 5.78763 4.13842 4.16464 5.78763 5.83985 4.16464 4.20668 5.83985 5.89885 4.20668 4.24742 5.89885 5.9511 4.24742 4.25627 5.9511 5.94849 4.25627 4.22023 5.94849 5.77119 4.22023 4.06047 5.77119 5.67053 4.06047 3.74672 5.67053 6.04035 3.74672 3.82395 6.04035 6.5793 3.82395 4.32082 6.5793 7.12378 4.32082 4.8892 7.12378 7.60758 4.8892 5.41356 7.60758 8.02337 5.41356 5.82094 8.02337 8.34957 5.82094