# vtk DataFile Version 3.0
#This file was generated by the deal.II library on 2015/9/1 at 17:12:56
ASCII
DATASET UNSTRUCTURED_GRID

POINTS 11912 double
0 0 0
0.05 0 0
0 0.05 0
0.05 0.05 0
0.05 0 0
0.1 0 0
0.05 0.05 0
0.1 0.05 0
0.1 0 0
0.15 0 0
0.1 0.05 0
0.15 0.05 0
0.15 0 0
0.2 0 0
0.15 0.05 0
0.2 0.05 0
0.2 0 0
0.25 0 0
0.2 0.05 0
0.25 0.05 0
0.25 0 0
0.3 0 0
0.25 0.05 0
0.3 0.05 0
0.3 0 0
0.35 0 0
0.3 0.05 0
0.35 0.05 0
0.35 0 0
0.4 0 0
0.35 0.05 0
0.4 0.05 0
0.4 0 0
0.45 0 0
0.4 0.05 0
0.45 0.05 0
0.45 0 0
0.5 0 0
0.45 0.05 0
0.5 0.05 0
0.5 0 0
0.55 0 0
0.5 0.05 0
0.55 0.05 0
0.55 0 0
0.6 0 0
0.55 0.05 0
0.6 0.05 0
0.6 0 0
0.65 0 0
0.6 0.05 0
0.65 0.05 0
0.65 0 0
0.7 0 0
0.65 0.05 0
0.7 0.05 0
0.7 0 0
0.75 0 0
0.7 0.05 0
0.75 0.05 0
0.75 0 0
0.8 0 0
0.75 0.05 0
0.8 0.05 0
0.8 0 0
0.85 0 0
0.8 0.05 0
0.85 0.05 0
0.85 0 0
0.9 0 0
0.85 0.05 0
0.9 0.05 0
0.9 0 0
0.95 0 0
0.9 0.05 0
0.95 0.05 0
0.95 0 0
1 0 0
0.95 0.05 0
1 0.05 0
1 0 0
1.05 0 0
1 0.05 0
1.05 0.05 0
1.05 0 0
1.1 0 0
1.05 0.05 0
1.1 0.05 0
1.1 0 0
1.15 0 0
1.1 0.05 0
1.15 0.05 0
1.15 0 0
1.2 0 0
1.15 0.05 0
1.2 0.05 0
1.2 0 0
1.25 0 0
1.2 0.05 0
1.25 0.05 0
1.25 0 0
1.3 0 0
1.25 0.05 0
1.3 0.05 0
0.1 0.05 0
0.15 0.05 0
0.1 0.1 0
0.15 0.1 0
0.15 0.05 0
0.2 0.05 0
0.15 0.1 0
0.2 0.1 0
0.2 0.05 0
0.25 0.05 0
0.2 0.1 0
0.25 0.1 0
0.25 0.05 0
0.3 0.05 0
0.25 0.1 0
0.3 0.1 0
0.2 0.1 0
0.25 0.1 0
0.2 0.15 0
0.25 0.15 0
0.25 0.1 0
0.3 0.1 0
0.25 0.15 0
0.3 0.15 0
0.85 0.45 0
0.9 0.45 0
0.85 0.5 0
0.9 0.5 0
0.9 0.45 0
0.95 0.45 0
0.9 0.5 0
0.95 0.5 0
1.45 0.45 0
1.5 0.45 0
1.45 0.5 0
1.5 0.5 0
1.9 0.45 0
1.95 0.45 0
1.9 0.5 0
1.95 0.5 0
1.95 0.45 0
2 0.45 0
1.95 0.5 0
2 0.5 0
0.65 0.5 0
0.7 0.5 0
0.65 0.55 0
0.7 0.55 0
0.85 0.5 0
0.9 0.5 0
0.85 0.55 0
0.9 0.55 0
0.9 0.5 0
0.95 0.5 0
0.9 0.55 0
0.95 0.55 0
1.9 0.5 0
1.95 0.5 0
1.9 0.55 0
1.95 0.55 0
1.95 0.5 0
2 0.5 0
1.95 0.55 0
2 0.55 0
0.2 0.85 0
0.25 0.85 0
0.2 0.9 0
0.25 0.9 0
0.25 0.85 0
0.3 0.85 0
0.25 0.9 0
0.3 0.9 0
0.1 0.9 0
0.15 0.9 0
0.1 0.95 0
0.15 0.95 0
0.15 0.9 0
0.2 0.9 0
0.15 0.95 0
0.2 0.95 0
0.2 0.9 0
0.25 0.9 0
0.2 0.95 0
0.25 0.95 0
0.25 0.9 0
0.3 0.9 0
0.25 0.95 0
0.3 0.95 0
0 0.95 0
0.05 0.95 0
0 1 0
0.05 1 0
0.05 0.95 0
0.1 0.95 0
0.05 1 0
0.1 1 0
0.1 0.95 0
0.15 0.95 0
0.1 1 0
0.15 1 0
0.15 0.95 0
0.2 0.95 0
0.15 1 0
0.2 1 0
0.2 0.95 0
0.25 0.95 0
0.2 1 0
0.25 1 0
0.25 0.95 0
0.3 0.95 0
0.25 1 0
0.3 1 0
0.3 0.95 0
0.35 0.95 0
0.3 1 0
0.35 1 0
0.35 0.95 0
0.4 0.95 0
0.35 1 0
0.4 1 0
0.4 0.95 0
0.45 0.95 0
0.4 1 0
0.45 1 0
0.45 0.95 0
0.5 0.95 0
0.45 1 0
0.5 1 0
0.5 0.95 0
0.55 0.95 0
0.5 1 0
0.55 1 0
0.55 0.95 0
0.6 0.95 0
0.55 1 0
0.6 1 0
0.6 0.95 0
0.65 0.95 0
0.6 1 0
0.65 1 0
0.65 0.95 0
0.7 0.95 0
0.65 1 0
0.7 1 0
0.7 0.95 0
0.75 0.95 0
0.7 1 0
0.75 1 0
0.75 0.95 0
0.8 0.95 0
0.75 1 0
0.8 1 0
0.8 0.95 0
0.85 0.95 0
0.8 1 0
0.85 1 0
0.85 0.95 0
0.9 0.95 0
0.85 1 0
0.9 1 0
0.9 0.95 0
0.95 0.95 0
0.9 1 0
0.95 1 0
0.95 0.95 0
1 0.95 0
0.95 1 0
1 1 0
1 0.95 0
1.05 0.95 0
1 1 0
1.05 1 0
1.05 0.95 0
1.1 0.95 0
1.05 1 0
1.1 1 0
1.1 0.95 0
1.15 0.95 0
1.1 1 0
1.15 1 0
1.15 0.95 0
1.2 0.95 0
1.15 1 0
1.2 1 0
1.2 0.95 0
1.25 0.95 0
1.2 1 0
1.25 1 0
1.25 0.95 0
1.3 0.95 0
1.25 1 0
1.3 1 0
1.3 0 0
1.325 0 0
1.3 0.025 0
1.325 0.025 0
1.325 0 0
1.35 0 0
1.325 0.025 0
1.35 0.025 0
1.3 0.025 0
1.325 0.025 0
1.3 0.05 0
1.325 0.05 0
1.325 0.025 0
1.35 0.025 0
1.325 0.05 0
1.35 0.05 0
1.35 0 0
1.375 0 0
1.35 0.025 0
1.375 0.025 0
1.375 0 0
1.4 0 0
1.375 0.025 0
1.4 0.025 0
1.35 0.025 0
1.375 0.025 0
1.35 0.05 0
1.375 0.05 0
1.375 0.025 0
1.4 0.025 0
1.375 0.05 0
1.4 0.05 0
1.4 0 0
1.425 0 0
1.4 0.025 0
1.425 0.025 0
1.425 0 0
1.45 0 0
1.425 0.025 0
1.45 0.025 0
1.4 0.025 0
1.425 0.025 0
1.4 0.05 0
1.425 0.05 0
1.425 0.025 0
1.45 0.025 0
1.425 0.05 0
1.45 0.05 0
1.45 0 0
1.475 0 0
1.45 0.025 0
1.475 0.025 0
1.475 0 0
1.5 0 0
1.475 0.025 0
1.5 0.025 0
1.45 0.025 0
1.475 0.025 0
1.45 0.05 0
1.475 0.05 0
1.475 0.025 0
1.5 0.025 0
1.475 0.05 0
1.5 0.05 0
1.5 0 0
1.525 0 0
1.5 0.025 0
1.525 0.025 0
1.525 0 0
1.55 0 0
1.525 0.025 0
1.55 0.025 0
1.5 0.025 0
1.525 0.025 0
1.5 0.05 0
1.525 0.05 0
1.525 0.025 0
1.55 0.025 0
1.525 0.05 0
1.55 0.05 0
1.55 0 0
1.575 0 0
1.55 0.025 0
1.575 0.025 0
1.575 0 0
1.6 0 0
1.575 0.025 0
1.6 0.025 0
1.55 0.025 0
1.575 0.025 0
1.55 0.05 0
1.575 0.05 0
1.575 0.025 0
1.6 0.025 0
1.575 0.05 0
1.6 0.05 0
1.6 0 0
1.625 0 0
1.6 0.025 0
1.625 0.025 0
1.625 0 0
1.65 0 0
1.625 0.025 0
1.65 0.025 0
1.6 0.025 0
1.625 0.025 0
1.6 0.05 0
1.625 0.05 0
1.625 0.025 0
1.65 0.025 0
1.625 0.05 0
1.65 0.05 0
1.65 0 0
1.675 0 0
1.65 0.025 0
1.675 0.025 0
1.675 0 0
1.7 0 0
1.675 0.025 0
1.7 0.025 0
1.65 0.025 0
1.675 0.025 0
1.65 0.05 0
1.675 0.05 0
1.675 0.025 0
1.7 0.025 0
1.675 0.05 0
1.7 0.05 0
1.7 0 0
1.725 0 0
1.7 0.025 0
1.725 0.025 0
1.725 0 0
1.75 0 0
1.725 0.025 0
1.75 0.025 0
1.7 0.025 0
1.725 0.025 0
1.7 0.05 0
1.725 0.05 0
1.725 0.025 0
1.75 0.025 0
1.725 0.05 0
1.75 0.05 0
1.75 0 0
1.775 0 0
1.75 0.025 0
1.775 0.025 0
1.775 0 0
1.8 0 0
1.775 0.025 0
1.8 0.025 0
1.75 0.025 0
1.775 0.025 0
1.75 0.05 0
1.775 0.05 0
1.775 0.025 0
1.8 0.025 0
1.775 0.05 0
1.8 0.05 0
1.8 0 0
1.825 0 0
1.8 0.025 0
1.825 0.025 0
1.825 0 0
1.85 0 0
1.825 0.025 0
1.85 0.025 0
1.8 0.025 0
1.825 0.025 0
1.8 0.05 0
1.825 0.05 0
1.825 0.025 0
1.85 0.025 0
1.825 0.05 0
1.85 0.05 0
1.85 0 0
1.875 0 0
1.85 0.025 0
1.875 0.025 0
1.875 0 0
1.9 0 0
1.875 0.025 0
1.9 0.025 0
1.85 0.025 0
1.875 0.025 0
1.85 0.05 0
1.875 0.05 0
1.875 0.025 0
1.9 0.025 0
1.875 0.05 0
1.9 0.05 0
1.9 0 0
1.925 0 0
1.9 0.025 0
1.925 0.025 0
1.925 0 0
1.95 0 0
1.925 0.025 0
1.95 0.025 0
1.9 0.025 0
1.925 0.025 0
1.9 0.05 0
1.925 0.05 0
1.925 0.025 0
1.95 0.025 0
1.925 0.05 0
1.95 0.05 0
1.95 0 0
1.975 0 0
1.95 0.025 0
1.975 0.025 0
1.975 0 0
2 0 0
1.975 0.025 0
2 0.025 0
1.95 0.025 0
1.975 0.025 0
1.95 0.05 0
1.975 0.05 0
1.975 0.025 0
2 0.025 0
1.975 0.05 0
2 0.05 0
0 0.05 0
0.025 0.05 0
0 0.075 0
0.025 0.075 0
0.025 0.05 0
0.05 0.05 0
0.025 0.075 0
0.05 0.075 0
0 0.075 0
0.025 0.075 0
0 0.1 0
0.025 0.1 0
0.025 0.075 0
0.05 0.075 0
0.025 0.1 0
0.05 0.1 0
0.05 0.05 0
0.075 0.05 0
0.05 0.075 0
0.075 0.075 0
0.075 0.05 0
0.1 0.05 0
0.075 0.075 0
0.1 0.075 0
0.05 0.075 0
0.075 0.075 0
0.05 0.1 0
0.075 0.1 0
0.075 0.075 0
0.1 0.075 0
0.075 0.1 0
0.1 0.1 0
0.3 0.05 0
0.325 0.05 0
0.3 0.075 0
0.325 0.075 0
0.325 0.05 0
0.35 0.05 0
0.325 0.075 0
0.35 0.075 0
0.3 0.075 0
0.325 0.075 0
0.3 0.1 0
0.325 0.1 0
0.325 0.075 0
0.35 0.075 0
0.325 0.1 0
0.35 0.1 0
0.35 0.05 0
0.375 0.05 0
0.35 0.075 0
0.375 0.075 0
0.375 0.05 0
0.4 0.05 0
0.375 0.075 0
0.4 0.075 0
0.35 0.075 0
0.375 0.075 0
0.35 0.1 0
0.375 0.1 0
0.375 0.075 0
0.4 0.075 0
0.375 0.1 0
0.4 0.1 0
0.4 0.05 0
0.425 0.05 0
0.4 0.075 0
0.425 0.075 0
0.425 0.05 0
0.45 0.05 0
0.425 0.075 0
0.45 0.075 0
0.4 0.075 0
0.425 0.075 0
0.4 0.1 0
0.425 0.1 0
0.425 0.075 0
0.45 0.075 0
0.425 0.1 0
0.45 0.1 0
0.45 0.05 0
0.475 0.05 0
0.45 0.075 0
0.475 0.075 0
0.475 0.05 0
0.5 0.05 0
0.475 0.075 0
0.5 0.075 0
0.45 0.075 0
0.475 0.075 0
0.45 0.1 0
0.475 0.1 0
0.475 0.075 0
0.5 0.075 0
0.475 0.1 0
0.5 0.1 0
0.5 0.05 0
0.525 0.05 0
0.5 0.075 0
0.525 0.075 0
0.525 0.05 0
0.55 0.05 0
0.525 0.075 0
0.55 0.075 0
0.5 0.075 0
0.525 0.075 0
0.5 0.1 0
0.525 0.1 0
0.525 0.075 0
0.55 0.075 0
0.525 0.1 0
0.55 0.1 0
0.55 0.05 0
0.575 0.05 0
0.55 0.075 0
0.575 0.075 0
0.575 0.05 0
0.6 0.05 0
0.575 0.075 0
0.6 0.075 0
0.55 0.075 0
0.575 0.075 0
0.55 0.1 0
0.575 0.1 0
0.575 0.075 0
0.6 0.075 0
0.575 0.1 0
0.6 0.1 0
0.6 0.05 0
0.625 0.05 0
0.6 0.075 0
0.625 0.075 0
0.625 0.05 0
0.65 0.05 0
0.625 0.075 0
0.65 0.075 0
0.6 0.075 0
0.625 0.075 0
0.6 0.1 0
0.625 0.1 0
0.625 0.075 0
0.65 0.075 0
0.625 0.1 0
0.65 0.1 0
0.65 0.05 0
0.675 0.05 0
0.65 0.075 0
0.675 0.075 0
0.675 0.05 0
0.7 0.05 0
0.675 0.075 0
0.7 0.075 0
0.65 0.075 0
0.675 0.075 0
0.65 0.1 0
0.675 0.1 0
0.675 0.075 0
0.7 0.075 0
0.675 0.1 0
0.7 0.1 0
0.7 0.05 0
0.725 0.05 0
0.7 0.075 0
0.725 0.075 0
0.725 0.05 0
0.75 0.05 0
0.725 0.075 0
0.75 0.075 0
0.7 0.075 0
0.725 0.075 0
0.7 0.1 0
0.725 0.1 0
0.725 0.075 0
0.75 0.075 0
0.725 0.1 0
0.75 0.1 0
0.75 0.05 0
0.775 0.05 0
0.75 0.075 0
0.775 0.075 0
0.775 0.05 0
0.8 0.05 0
0.775 0.075 0
0.8 0.075 0
0.75 0.075 0
0.775 0.075 0
0.75 0.1 0
0.775 0.1 0
0.775 0.075 0
0.8 0.075 0
0.775 0.1 0
0.8 0.1 0
0.8 0.05 0
0.825 0.05 0
0.8 0.075 0
0.825 0.075 0
0.825 0.05 0
0.85 0.05 0
0.825 0.075 0
0.85 0.075 0
0.8 0.075 0
0.825 0.075 0
0.8 0.1 0
0.825 0.1 0
0.825 0.075 0
0.85 0.075 0
0.825 0.1 0
0.85 0.1 0
0.85 0.05 0
0.875 0.05 0
0.85 0.075 0
0.875 0.075 0
0.875 0.05 0
0.9 0.05 0
0.875 0.075 0
0.9 0.075 0
0.85 0.075 0
0.875 0.075 0
0.85 0.1 0
0.875 0.1 0
0.875 0.075 0
0.9 0.075 0
0.875 0.1 0
0.9 0.1 0
0.9 0.05 0
0.925 0.05 0
0.9 0.075 0
0.925 0.075 0
0.925 0.05 0
0.95 0.05 0
0.925 0.075 0
0.95 0.075 0
0.9 0.075 0
0.925 0.075 0
0.9 0.1 0
0.925 0.1 0
0.925 0.075 0
0.95 0.075 0
0.925 0.1 0
0.95 0.1 0
0.95 0.05 0
0.975 0.05 0
0.95 0.075 0
0.975 0.075 0
0.975 0.05 0
1 0.05 0
0.975 0.075 0
1 0.075 0
0.95 0.075 0
0.975 0.075 0
0.95 0.1 0
0.975 0.1 0
0.975 0.075 0
1 0.075 0
0.975 0.1 0
1 0.1 0
1 0.05 0
1.025 0.05 0
1 0.075 0
1.025 0.075 0
1.025 0.05 0
1.05 0.05 0
1.025 0.075 0
1.05 0.075 0
1 0.075 0
1.025 0.075 0
1 0.1 0
1.025 0.1 0
1.025 0.075 0
1.05 0.075 0
1.025 0.1 0
1.05 0.1 0
1.05 0.05 0
1.075 0.05 0
1.05 0.075 0
1.075 0.075 0
1.075 0.05 0
1.1 0.05 0
1.075 0.075 0
1.1 0.075 0
1.05 0.075 0
1.075 0.075 0
1.05 0.1 0
1.075 0.1 0
1.075 0.075 0
1.1 0.075 0
1.075 0.1 0
1.1 0.1 0
1.1 0.05 0
1.125 0.05 0
1.1 0.075 0
1.125 0.075 0
1.125 0.05 0
1.15 0.05 0
1.125 0.075 0
1.15 0.075 0
1.1 0.075 0
1.125 0.075 0
1.1 0.1 0
1.125 0.1 0
1.125 0.075 0
1.15 0.075 0
1.125 0.1 0
1.15 0.1 0
1.15 0.05 0
1.175 0.05 0
1.15 0.075 0
1.175 0.075 0
1.175 0.05 0
1.2 0.05 0
1.175 0.075 0
1.2 0.075 0
1.15 0.075 0
1.175 0.075 0
1.15 0.1 0
1.175 0.1 0
1.175 0.075 0
1.2 0.075 0
1.175 0.1 0
1.2 0.1 0
1.2 0.05 0
1.225 0.05 0
1.2 0.075 0
1.225 0.075 0
1.225 0.05 0
1.25 0.05 0
1.225 0.075 0
1.25 0.075 0
1.2 0.075 0
1.225 0.075 0
1.2 0.1 0
1.225 0.1 0
1.225 0.075 0
[...]
POINT_DATA 11912
SCALARS x_displacement double 1
LOOKUP_TABLE default
0 -1.57955 0 -0.924642 -1.57955 -2.74226 -0.924642 -1.87905 -2.74226 -3.68516 -1.87905 -2.69846 -3.68516 -4.48152 -2.69846 -3.41298 -4.48152 -5.18961 -3.41298 -4.04965 -5.18961 -5.87025 -4.04965 -4.62914 -5.87025 -6.5669 -4.62914 -5.19656 -6.5669 -7.28695 -5.19656 -5.78077 -7.28695 -8.00102 -5.78077 -6.39193 -8.00102 -8.68834 -6.39193 -7.02231 -8.68834 -9.34696 -7.02231 -7.66297 -9.34696 -9.98102 -7.66297 -8.30927 -9.98102 -10.5955 -8.30927 -8.95776 -10.5955 -11.1945 -8.95776 -9.60516 -11.1945 -11.7827 -9.60516 -10.2482 -11.7827 -12.366 -10.2482 -10.8828 -12.366 -12.951 -10.8828 -11.5051 -12.951 -13.5442 -11.5051 -12.1116 -13.5442 -14.15 -12.1116 -12.7004 -14.15 -14.7713 -12.7004 -13.2709 -14.7713 -15.4119 -13.2709 -13.8218 -15.4119 -16.0778 -13.8218 -14.3523 -16.0778 -16.763 -14.3523 -14.8588 -16.763 -17.4333 -14.8588 -15.33 -17.4333 -18.0193 -15.33 -15.756 -18.0193 -18.438 -15.756 -16.1251 -1.87905 -2.69846 -1.33035 -1.94677 -2.69846 -3.41298 -1.94677 -2.52219 -3.41298 -4.04965 -2.52219 -3.03965 -4.04965 -4.62914 -3.03965 -3.4719 -2.52219 -3.03965 -1.7808 -2.18351 -3.03965 -3.4719 -2.18351 -2.5369 -1.10643 -1.2114 -0.00820552 -0.00836158 -1.2114 -1.25668 -0.00836158 -0.00867315 -1.33945 -1.34417 -0.000531996 0.00030492 -2.20504 -2.44133 0.00216111 0.00210585 -2.44133 -2.4783 0.00210585 0.0020759 -0.111848 -0.0737822 0.460509 0.599426 -0.00820552 -0.00836158 1.08926 1.19428 -0.00836158 -0.00867315 1.19428 1.23931 0.00216111 0.00210585 2.20923 2.44546 0.00210585 0.0020759 2.44546 2.4824 1.76532 2.16815 2.51477 3.03191 2.16815 2.52136 3.03191 3.46383 1.3239 1.93972 1.88009 2.6996 1.93972 2.51477 2.6996 3.41389 2.51477 3.03191 3.41389 4.04998 3.03191 3.46383 4.04998 4.62873 0 0.925139 0 1.58593 0.925139 1.88009 1.58593 2.75183 1.88009 2.6996 2.75183 3.69567 2.6996 3.41389 3.69567 4.49164 3.41389 4.04998 4.49164 5.19861 4.04998 4.62873 5.19861 5.87771 4.62873 5.1954 5.87771 6.57248 5.1954 5.77899 6.57248 7.29011 5.77899 6.38966 7.29011 8.0012 6.38966 7.01972 8.0012 8.6853 7.01972 7.6602 8.6853 9.34097 7.6602 8.30631 9.34097 9.97267 8.30631 8.95453 9.97267 10.5855 8.95453 9.6016 10.5855 11.1835 9.6016 10.2442 11.1835 11.7714 10.2442 10.8785 11.7714 12.3549 10.8785 11.5005 12.3549 12.9406 11.5005 12.1069 12.9406 13.5346 12.1069 12.6958 13.5346 14.1414 12.6958 13.2667 14.1414 14.7637 13.2667 13.8182 14.7637 15.4056 13.8182 14.3493 15.4056 16.0728 14.3493 14.8562 16.0728 16.7593 14.8562 15.3278 16.7593 17.4306 15.3278 15.7538 17.4306 18.017 15.7538 16.1228 18.017 18.4357 -18.438 -18.5936 -17.2815 -17.4066 -18.5936 -18.7014 -17.4066 -17.5404 -17.2815 -17.4066 -16.1251 -16.294 -17.4066 -17.5404 -16.294 -16.4435 -18.7014 -18.8022 -17.5404 -17.67 -18.8022 -18.8471 -17.67 -17.7828 -17.5404 -17.67 -16.4435 -16.5734 -17.67 -17.7828 -16.5734 -16.6857 -18.8471 -18.8075 -17.7828 -17.8974 -18.8075 -19.2413 -17.8974 -18.0611 -17.7828 -17.8974 -16.6857 -16.799 -17.8974 -18.0611 -16.799 -16.8864 -19.2413 -19.5099 -18.0611 -18.1806 -19.5099 -19.6347 -18.1806 -18.2914 -18.0611 -18.1806 -16.8864 -16.9081 -18.1806 -18.2914 -16.9081 -17.0799 -19.6347 -19.8346 -18.2914 -18.2116 -19.8346 -19.9907 -18.2116 -18.5977 -18.2914 -18.2116 -17.0799 -17.1116 -18.2116 -18.5977 -17.1116 -17.3588 -19.9907 -20.1862 -18.5977 -18.839 -20.1862 -20.3636 -18.839 -19.036 -18.5977 -18.839 -17.3588 -17.5946 -18.839 -19.036 -17.5946 -17.7861 -20.3636 -20.5168 -19.036 -19.1958 -20.5168 -20.6422 -19.1958 -19.3274 -19.036 -19.1958 -17.7861 -17.9285 -19.1958 -19.3274 -17.9285 -18.0579 -20.6422 -20.7442 -19.3274 -19.4401 -20.7442 -20.8267 -19.4401 -19.5356 -19.3274 -19.4401 -18.0579 -18.1777 -19.4401 -19.5356 -18.1777 -18.2834 -20.8267 -20.8909 -19.5356 -19.6141 -20.8909 -20.9377 -19.6141 -19.6766 -19.5356 -19.6141 -18.2834 -18.3733 -19.6141 -19.6766 -18.3733 -18.4481 -20.9377 -20.9689 -19.6766 -19.7249 -20.9689 -20.9868 -19.7249 -19.7607 -19.6766 -19.7249 -18.4481 -18.5097 -19.7249 -19.7607 -18.5097 -18.5595 -20.9868 -20.9939 -19.7607 -19.7857 -20.9939 -20.9925 -19.7857 -19.8015 -19.7607 -19.7857 -18.5595 -18.5983 -19.7857 -19.8015 -18.5983 -18.6271 -20.9925 -20.9851 -19.8015 -19.8101 -20.9851 -20.9743 -19.8101 -19.8133 -19.8015 -19.8101 -18.6271 -18.6472 -19.8101 -19.8133 -18.6472 -18.6598 -20.9743 -20.9632 -19.8133 -19.8133 -20.9632 -20.9546 -19.8133 -19.8119 -19.8133 -19.8133 -18.6598 -18.6667 -19.8133 -19.8119 -18.6667 -18.6697 -20.9546 -20.9501 -19.8119 -19.8108 -20.9501 -20.9492 -19.8108 -19.8108 -19.8119 -19.8108 -18.6697 -18.671 -19.8108 -19.8108 -18.671 -18.6725 0 -0.462321 0 -0.382749 -0.462321 -0.924642 -0.382749 -0.798366 0 -0.382749 0 -0.329881 -0.382749 -0.798366 -0.329881 -0.714371 -0.924642 -1.40185 -0.798366 -1.1995 -1.40185 -1.87905 -1.1995 -1.6047 -0.798366 -1.1995 -0.714371 -1.03992 -1.1995 -1.6047 -1.03992 -1.33035 -4.62914 -4.91285 -4.05052 -4.27328 -4.91285 -5.19656 -4.27328 -4.50038 -4.05052 -4.27328 -3.4719 -3.66313 -4.27328 -4.50038 -3.66313 -3.8258 -5.19656 -5.48867 -4.50038 -4.74305 -5.48867 -5.78077 -4.74305 -5.0049 -4.50038 -4.74305 -3.8258 -3.98995 -4.74305 -5.0049 -3.98995 -4.18393 -5.78077 -6.08635 -5.0049 -5.28474 -6.08635 -6.39193 -5.28474 -5.57707 -5.0049 -5.28474 -4.18393 -4.44771 -5.28474 -5.57707 -4.44771 -4.7371 -6.39193 -6.70712 -5.57707 -5.87787 -6.70712 -7.02231 -5.87787 -6.18704 -5.57707 -5.87787 -4.7371 -5.03259 -5.87787 -6.18704 -5.03259 -5.33683 -7.02231 -7.34264 -6.18704 -6.50098 -7.34264 -7.66297 -6.50098 -6.82149 -6.18704 -6.50098 -5.33683 -5.65086 -6.50098 -6.82149 -5.65086 -5.97262 -7.66297 -7.98612 -6.82149 -7.14622 -7.98612 -8.30927 -7.14622 -7.47555 -6.82149 -7.14622 -5.97262 -6.30326 -7.14622 -7.47555 -6.30326 -6.64002 -8.30927 -8.63351 -7.47555 -7.80734 -8.63351 -8.95776 -7.80734 -8.14193 -7.47555 -7.80734 -6.64002 -6.98141 -7.80734 -8.14193 -6.98141 -7.32734 -8.95776 -9.28146 -8.14193 -8.47779 -9.28146 -9.60516 -8.47779 -8.81479 -8.14193 -8.47779 -7.32734 -7.67715 -8.47779 -8.81479 -7.67715 -8.02996 -9.60516 -9.92666 -8.81479 -9.15142 -9.92666 -10.2482 -9.15142 -9.48689 -8.81479 -9.15142 -8.02996 -8.38326 -9.15142 -9.48689 -8.38326 -8.73649 -10.2482 -10.5655 -9.48689 -9.81985 -10.5655 -10.8828 -9.81985 -10.149 -9.48689 -9.81985 -8.73649 -9.08573 -9.81985 -10.149 -9.08573 -9.43107 -10.8828 -11.194 -10.149 -10.4733 -11.194 -11.5051 -10.4733 -10.7913 -10.149 -10.4733 -9.43107 -9.76812 -10.4733 -10.7913 -9.76812 -10.0973 -11.5051 -11.8084 -10.7913 -11.1024 -11.8084 -12.1116 -11.1024 -11.4051 -10.7913 -11.1024 -10.0973 -10.4143 -11.1024 -11.4051 -10.4143 -10.7201 -12.1116 -12.406 -11.4051 -11.6996 -12.406 -12.7004 -11.6996 -11.9847 -11.4051 -11.6996 -10.7201 -11.011 -11.6996 -11.9847 -11.011 -11.2896 -12.7004 -12.9856 -11.9847 -12.2615 -12.9856 -13.2709 -12.2615 -12.5287 -11.9847 -12.2615 -11.2896 -11.5534 -12.2615 -12.5287 -11.5534 -11.806 -13.2709 -13.5463 -12.5287 -12.7879 -13.5463 -13.8218 -12.7879 -13.0368 -12.5287 -12.7879 -11.806 -12.047 -12.7879 -13.0368 -12.047 -12.2758 -13.8218 -14.0871 -13.0368 -13.2772 -14.0871 -14.3523 -13.2772 -13.5068 -13.0368 -13.2772 -12.2758 -12.492 -13.2772 -13.5068 -12.492 -12.6937 -14.3523 -14.6055 -13.5068 -13.7275 -14.6055 -14.8588 -13.7275 -13.9364 -13.5068 -13.7275 -12.6937 -12.8762 -13.7275 -13.9364 -12.8762 -13.0454 -14.8588 -15.0944 -13.9364 -14.1367 -15.0944 -15.33 -14.1367 -14.3256 -13.9364 -14.1367 -13.0454 -13.2008 -14.1367 -14.3256 -13.2008 -13.3486 -15.33 -15.543 -14.3256 -14.5106 -15.543 -15.756 -14.5106 -14.6894 -14.3256 -14.5106 -13.3486 -13.493 -14.5106 -14.6894 -13.493 -13.6374 -15.756 -15.9406 -14.6894 -14.8643 -15.9406 -16.1251 -14.8643 -15.0303 -14.6894 -14.8643 -13.6374 -13.7827 -14.8643 -15.0303 -13.7827 -13.9262 -16.1251 -16.294 -15.0303 -15.1811 -16.294 -16.4435 -15.1811 -15.3194 -15.0303 -15.1811 -13.9262 -14.0617 -15.1811 -15.3194 -14.0617 -14.1882 -16.4435 -16.5734 -15.3194 -15.4461 -16.5734 -16.6857 -15.4461 -15.5623 -15.3194 -15.4461 -14.1882 -14.3107 -15.4461 -15.5623 -14.3107 -14.4311 -16.6857 -16.799 -15.5623 -15.6637 -16.799 -16.8864 -15.6637 -15.7626 -15.5623 -15.6637 -14.4311 -14.5494 -15.6637 -15.7626 -14.5494 -14.6893 -16.8864 -16.9081 -15.7626 -15.9395 -16.9081 -17.0799 -15.9395 -16.1708 -15.7626 -15.9395 -14.6893 -14.8568 -15.9395 -16.1708 -14.8568 -15.0119 -17.0799 -17.1116 -16.1708 -16.2778 -17.1116 -17.3588 -16.2778 -16.3852 -16.1708 -16.2778 -15.0119 -15.1285 -16.2778 -16.3852 -15.1285 -15.1841 -17.3588 -17.5946 -16.3852 -16.4827 -17.5946 -17.7861 -16.4827 -16.5756 -16.3852 -16.4827 -15.1841 -15.1444 -16.4827 -16.5756 -15.1444 -15.3539 -17.7861 -17.9285 -16.5756 -16.6966 -17.9285 -18.0579 -16.6966 -16.8279 -16.5756 -16.6966 -15.3539 -15.518 -16.6966 -16.8279 -15.518 -15.6295 -18.0579 -18.1777 -16.8279 -16.9515 -18.1777 -18.2834 -16.9515 -17.0662 -16.8279 -16.9515 -15.6295 -15.7562 -16.9515 -17.0662 -15.7562 -15.8764 -18.2834 -18.3733 -17.0662 -17.1644 -18.3733 -18.4481 -17.1644 -17.2489 -17.0662 -17.1644 -15.8764 -15.98 -17.1644 -17.2489 -15.98 -16.0775 -18.4481 -18.5097 -17.2489 -17.3222 -18.5097 -18.5595 -17.3222 -17.3837 -17.2489 -17.3222 -16.0775 -16.163 -17.3222 -17.3837 -16.163 -16.2345 -18.5595 -18.5983 -17.3837 -17.4335 -18.5983 -18.6271 -17.4335 -17.4723 -17.3837 -17.4335 -16.2345 -16.293 -17.4335 -17.4723 -16.293 -16.3398 -18.6271 -18.6472 -17.4723 -17.5007 -18.6472 -18.6598 -17.5007 -17.5197 -17.4723 -17.5007 -16.3398 -16.3748 -17.5007 -17.5197 -16.3748 -16.3982 -18.6598 -18.6667 -17.5197 -17.5308 -18.6667 -18.6697 -17.5308 -17.5361 -17.5197 -17.5308 -16.3982 -16.4114 -17.5308 -17.5361 -16.4114 -16.4173 -18.6697 -18.671 -17.5361 -17.5383 -18.671 -18.6725 -17.5383 -17.5406 -17.5361 -17.5383 -16.4173 -16.4191 -17.5383 -17.5406 -16.4191 -16.4213 0 -0.329881 0 -0.301315 -0.329881 -0.714371 -0.301315 -0.638221 0 -0.301315 0 -0.250706 -0.301315 -0.638221 -0.250706 -0.449252 -0.714371 -1.03992 -0.638221 -0.860358 -1.03992 -1.33035 -0.860358 -1.07602 -0.638221 -0.860358 -0.449252 -0.595912 -0.860358 -1.07602 -0.595912 -0.786097 -1.33035 -1.63856 -1.07602 -1.3325 -1.63856 -1.94677 -1.3325 -1.61642 -1.07602 -1.3325 -0.786097 -1.04741 -1.3325 -1.61642 -1.04741 -1.34152 -1.94677 -2.23448 -1.61642 -1.88879 -2.23448 -2.52219 -1.88879 -2.15149 -1.61642 -1.88879 -1.34152 -1.57983 -1.88879 -2.15149 -1.57983 -1.7808 -3.4719 -3.66313 -3.0044 -3.1449 -3.66313 -3.8258 -3.1449 -3.27621 -3.0044 -3.1449 -2.5369 -2.70278 -3.1449 -3.27621 -2.70278 -2.84802 -3.8258 -3.98995 -3.27621 -3.38378 -3.98995 -4.18393 -3.38378 -3.48532 -3.27621 -3.38378 -2.84802 -2.98003 -3.38378 -3.48532 -2.98003 -3.11963 -4.18393 -4.44771 -3.48532 -3.64216 -4.44771 -4.7371 -3.64216 -3.8913 -3.48532 -3.64216 -3.11963 -3.28497 -3.64216 -3.8913 -3.28497 -3.43837 -4.7371 -5.03259 -3.8913 -4.14802 -5.03259 -5.33683 -4.14802 -4.4497 -3.8913 -4.14802 -3.43837 -3.57656 -4.14802 -4.4497 -3.57656 -3.69634 -5.33683 -5.65086 -4.4497 -4.77445 -5.65086 -5.97262 -4.77445 -5.11247 -4.4497 -4.77445 -3.69634 -3.8215 -4.77445 -5.11247 -3.8215 -4.1289 -5.97262 -6.30326 -5.11247 -5.45445 -6.30326 -6.64002 -5.45445 -5.80481 -5.11247 -5.45445 -4.1289 -4.45578 -5.45445 -5.80481 -4.45578 -4.85533 -6.64002 -6.98141 -5.80481 -6.15867 -6.98141 -7.32734 -6.15867 -6.51715 -5.80481 -6.15867 -4.85533 -5.36001 -6.15867 -6.51715 -5.36001 -5.88627 -7.32734 -7.67715 -6.51715 -6.88601 -7.67715 -8.02996 -6.88601 -7.25441 -6.51715 -6.88601 -5.88627 -6.30111 -6.88601 -7.25441 -6.30111 -6.69759 -8.02996 -8.38326 -7.25441 -7.63164 -8.38326 -8.73649 -7.63164 -8.00087 -7.25441 -7.63164 -6.69759 -7.05961 -7.63164 -8.00087 -7.05961 -7.44487 -8.73649 -9.08573 -8.00087 -8.37438 -9.08573 -9.43107 -8.37438 -8.73233 -8.00087 -8.37438 -7.44487 -7.79023 -8.37438 -8.73233 -7.79023 -8.15905 -9.43107 -9.76812 -8.73233 -9.08889 -9.76812 -10.0973 -9.08889 -9.42391 -8.73233 -9.08889 -8.15905 -8.4873 -9.08889 -9.42391 -8.4873 -8.82707 -10.0973 -10.4143 -9.42391 -9.75129 -10.4143 -10.7201 -9.75129 -10.0538 -9.42391 -9.75129 -8.82707 -9.12758 -9.75129 -10.0538 -9.12758 -9.42907 -10.7201 -11.011 -10.0538 -10.3439 -11.011 -11.2896 -10.3439 -10.6115 -10.0538 -10.3439 -9.42907 -9.69522 -10.3439 -10.6115 -9.69522 -9.9583 -11.2896 -11.5534 -10.6115 -10.8654 -11.5534 -11.806 -10.8654 -11.1018 -10.6115 -10.8654 -9.9583 -10.1941 -10.8654 -11.1018 -10.1941 -10.4247 -11.806 -12.047 -11.1018 -11.3292 -12.047 -12.2758 -11.3292 -11.5411 -11.1018 -11.3292 -10.4247 -10.6493 -11.3292 -11.5411 -10.6493 -10.8623 -12.2758 -12.492 -11.5411 -11.74 -12.492 -12.6937 -11.74 -11.9113 -11.5411 -11.74 -10.8623 -11.0331 -11.74 -11.9113 -11.0331 -11.1633 -12.6937 -12.8762 -11.9113 -12.0549 -12.8762 -13.0454 -12.0549 -12.1795 -11.9113 -12.0549 -11.1633 -11.2633 -12.0549 -12.1795 -11.2633 -11.3447 -13.0454 -13.2008 -12.1795 -12.2909 -13.2008 -13.3486 -12.2909 -12.3937 -12.1795 -12.2909 -11.3447 -11.4081 -12.2909 -12.3937 -11.4081 -11.4562 -13.3486 -13.493 -12.3937 -12.4888 -13.493 -13.6374 -12.4888 -12.5795 -12.3937 -12.4888 -11.4562 -11.4913 -12.4888 -12.5795 -11.4913 -11.5202 -13.6374 -13.7827 -12.5795 -12.6768 -13.7827 -13.9262 -12.6768 -12.7852 -12.5795 -12.6768 -11.5202 -11.5514 -12.6768 -12.7852 -11.5514 -11.605 -13.9262 -14.0617 -12.7852 -12.907 -14.0617 -14.1882 -12.907 -13.0366 -12.7852 -12.907 -11.605 -11.7177 -12.907 -13.0366 -11.7177 -11.8691 -14.1882 -14.3107 -13.0366 -13.1662 -14.3107 -14.4311 -13.1662 -13.2975 -13.0366 -13.1662 -11.8691 -12.0123 -13.1662 -13.2975 -12.0123 -12.1474 -14.4311 -14.5494 -13.2975 -13.4307 -14.5494 -14.6893 -13.4307 -13.5687 -13.2975 -13.4307 -12.1474 -12.2829 -13.4307 -13.5687 -12.2829 -12.4161 -14.6893 -14.8568 -13.5687 -13.7072 -14.8568 -15.0119 -13.7072 -13.8341 -13.5687 -13.7072 -12.4161 -12.5483 -13.7072 -13.8341 -12.5483 -12.6824 -15.0119 -15.1285 -13.8341 -13.9482 -15.1285 -15.1841 -13.9482 -14.0493 -13.8341 -13.9482 -12.6824 -12.8104 -13.9482 -14.0493 -12.8104 -12.9304 -15.1841 -15.1444 -14.0493 -14.157 -15.1444 -15.3539 -14.157 -14.322 -14.0493 -14.157 -12.9304 -13.0606 -14.157 -14.322 -13.0606 -13.1712 -15.3539 -15.518 -14.322 -14.4065 -15.518 -15.6295 -14.4065 -14.508 -14.322 -14.4065 -13.1712 -13.2519 -14.4065 -14.508 -13.2519 -13.3579 -15.6295 -15.7562 -14.508 -14.5366 -15.7562 -15.8764 -14.5366 -14.6894 -14.508 -14.5366 -13.3579 -13.3368 -14.5366 -14.6894 -13.3368 -13.5457 -15.8764 -15.98 -14.6894 -14.8204 -15.98 -16.0775 -14.8204 -14.939 -14.6894 -14.8204 -13.5457 -13.7148 -14.8204 -14.939 -13.7148 -13.8507 -16.0775 -16.163 -14.939 -15.0354 -16.163 -16.2345 -15.0354 -15.1123 -14.939 -15.0354 -13.8507 -13.9359 -15.0354 -15.1123 -13.9359 -14.0153 -16.2345 -16.293 -15.1123 -15.1782 -16.293 -16.3398 -15.1782 -15.2326 -15.1123 -15.1782 -14.0153 -14.0905 -15.1782 -15.2326 -14.0905 -14.1536 -16.3398 -16.3748 -15.2326 -15.2733 -16.3748 -16.3982 -15.2733 -15.2996 -15.2326 -15.2733 -14.1536 -14.1995 -15.2733 -15.2996 -14.1995 -14.2275 -16.3982 -16.4114 -15.2996 -15.3134 -16.4114 -16.4173 -15.3134 -15.3182 -15.2996 -15.3134 -14.2275 -14.2403 -15.3134 -15.3182 -14.2403 -14.2429 -16.4173 -16.4191 -15.3182 -15.3186 -16.4191 -16.4213 -15.3186 -15.3197 -15.3182 -15.3186 -14.2429 -14.2406 -15.3186 -15.3197 -14.2406 -14.2394 0 -0.250706 0 -0.0699069 -0.250706 -0.449252 -0.0699069 -0.187703 0 -0.0699069 0 -0.134755 -0.0699069 -0.187703 -0.134755 -0.284928 -0.449252 -0.595912 -0.187703 -0.316756 -0.595912 -0.786097 -0.316756 -0.503288 -0.187703 -0.316756 -0.284928 -0.533297 -0.316756 -0.503288 -0.533297 -0.503177 -0.786097 -1.04741 -0.503288 -0.83727 -1.04741 -1.34152 -0.83727 -1.10508 -0.503288 -0.83727 -0.503177 -0.671088 -0.83727 -1.10508 -0.671088 -0.797825 -1.34152 -1.57983 -1.10508 -1.27173 -1.57983 -1.7808 -1.27173 -1.42677 -1.10508 -1.27173 -0.797825 -0.912037 -1.27173 -1.42677 -0.912037 -1.06276 -1.7808 -1.98215 -1.42677 -1.60476 -1.98215 -2.18351 -1.60476 -1.79281 -1.42677 -1.60476 -1.06276 -1.24095 -1.60476 -1.79281 -1.24095 -1.43731 -2.18351 -2.36021 -1.79281 -1.97287 -2.36021 -2.5369 -1.97287 -2.14186 -1.79281 -1.97287 -1.43731 -1.6139 -1.97287 -2.14186 -1.6139 -1.77256 -2.5369 -2.70278 -2.14186 -2.30378 -2.70278 -2.84802 -2.30378 -2.46134 -2.14186 -2.30378 -1.77256 -1.93198 -2.30378 -2.46134 -1.93198 -2.09358 -2.84802 -2.98003 -2.46134 -2.61661 -2.98003 -3.11963 -2.61661 -2.77452 -2.46134 -2.61661 -2.09358 -2.25568 -2.61661 -2.77452 -2.25568 -2.41532 -3.11963 -3.28497 -2.77452 -2.92753 -3.28497 -3.43837 -2.92753 -3.07118 -2.77452 -2.92753 -2.41532 -2.57249 -2.92753 -3.07118 -2.57249 -2.73416 -3.43837 -3.57656 -3.07118 -3.21351 -3.57656 -3.69634 -3.21351 -3.35739 -3.07118 -3.21351 -2.73416 -2.8958 -3.21351 -3.35739 -2.8958 -3.0604 -3.69634 -3.8215 -3.35739 -3.54433 -3.8215 -4.1289 -3.54433 -3.77477 -3.35739 -3.54433 -3.0604 -3.24295 -3.54433 -3.77477 -3.24295 -3.41448 -4.1289 -4.45578 -3.77477 -3.9008 -4.45578 -4.85533 -3.9008 -4.00044 -3.77477 -3.9008 -3.41448 -3.56271 -3.9008 -4.00044 -3.56271 -3.65246 -4.85533 -5.36001 -4.00044 -4.22465 -5.36001 -5.88627 -4.22465 -4.66686 -4.00044 -4.22465 -3.65246 -3.54839 -4.22465 -4.66686 -3.54839 -3.74608 -5.88627 -6.30111 -4.66686 -5.5191 -6.30111 -6.69759 -5.5191 -6.0674 -4.66686 -5.5191 -3.74608 -3.99236 -5.5191 -6.0674 -3.99236 -4.77654 -6.69759 -7.05961 -6.0674 -6.49377 -7.05961 -7.44487 -6.49377 -6.87268 -6.0674 -6.49377 -4.77654 -5.27349 -6.49377 -6.87268 -5.27349 -5.68599 -7.44487 -7.79023 -6.87268 -7.25015 -7.79023 -8.15905 -7.25015 -7.58425 -6.87268 -7.25015 -5.68599 -6.25154 -7.25015 -7.58425 -6.25154 -6.69393 -8.15905 -8.4873 -7.58425 -7.92598 -8.4873 -8.82707 -7.92598 -8.23015 -7.58425 -7.92598 -6.69393 -7.03682 -7.92598 -8.23015 -7.03682 -7.37384 -8.82707 -9.12758 -8.23015 -8.53345 -9.12758 -9.42907 -8.53345 -8.8064 -8.23015 -8.53345 -7.37384 -7.72373 -8.53345 -8.8064 -7.72373 -8.0899 -9.42907 -9.69522 -8.8064 -9.07501 -9.69522 -9.9583 -9.07501 -9.31979 -8.8064 -9.07501 -8.0899 -8.45463 -9.07501 -9.31979 -8.45463 -8.80081 -9.9583 -10.1941 -9.31979 -9.5799 -10.1941 -10.4247 -9.5799 -9.82905 -9.31979 -9.5799 -8.80081 -9.02053 -9.5799 -9.82905 -9.02053 -9.17057 -10.4247 -10.6493 -9.82905 -10.0681 -10.6493 -10.8623 -10.0681 -10.2021 -9.82905 -10.0681 -9.17057 -9.31009 -10.0681 -10.2021 -9.31009 -9.42428 -10.8623 -11.0331 -10.2021 -10.3115 -11.0331 -11.1633 -10.3115 -10.3979 -10.2021 -10.3115 -9.42428 -9.51138 -10.3115 -10.3979 -9.51138 -9.57042 -11.1633 -11.2633 -10.3979 -10.4616 -11.2633 -11.3447 -10.4616 -10.5 -10.3979 -10.4616 -9.57042 -9.60073 -10.4616 -10.5 -9.60073 -9.6041 -11.3447 -11.4081 -10.5 -10.5161 -11.4081 -11.4562 -10.5161 -10.514 -10.5 -10.5161 -9.6041 -9.58862 -10.5161 -10.514 -9.58862 -9.55895 -11.4562 -11.4913 -10.514 -10.4995 -11.4913 -11.5202 -10.4995 -10.4762 -10.514 -10.4995 -9.55895 -9.51624 -10.4995 -10.4762 -9.51624 -9.45777 -11.5202 -11.5514 -10.4762 -10.4456 -11.5514 -11.605 -10.4456 -10.4253 -10.4762 -10.4456 -9.45777 -9.3803 -10.4456 -10.4253 -9.3803 -9.29027 -11.605 -11.7177 -10.4253 -10.5048 -11.7177 -11.8691 -10.5048 -10.6904 -10.4253 -10.5048 -9.29027 -9.25836 -10.5048 -10.6904 -9.25836 -9.46439 -11.8691 -12.0123 -10.6904 -10.8375 -12.0123 -12.1474 -10.8375 -10.9779 -10.6904 -10.8375 -9.46439 -9.64935 -10.8375 -10.9779 -9.64935 -9.81664 -12.1474 -12.2829 -10.9779 -11.1221 -12.2829 -12.4161 -11.1221 -11.268 -10.9779 -11.1221 -9.81664 -9.97124 -11.1221 -11.268 -9.97124 -10.1334 -12.4161 -12.5483 -11.268 -11.4101 -12.5483 -12.6824 -11.4101 -11.5488 -11.268 -11.4101 -10.1334 -10.2859 -11.4101 -11.5488 -10.2859 -10.4261 -12.6824 -12.8104 -11.5488 -11.685 -12.8104 -12.9304 -11.685 -11.8177 -11.5488 -11.685 -10.4261 -10.5667 -11.685 -11.8177 -10.5667 -10.706 -12.9304 -13.0606 -11.8177 -11.937 -13.0606 -13.1712 -11.937 -12.052 -11.8177 -11.937 -10.706 -10.8411 -11.937 -12.052 -10.8411 -10.9872 -13.1712 -13.2519 -12.052 -12.2092 -13.2519 -13.3579 -12.2092 -12.378 -12.052 -12.2092 -10.9872 -11.1438 -12.2092 -12.378 -11.1438 -11.2928 -13.3579 -13.3368 -12.378 -12.5045 -13.3368 -13.5457 -12.5045 -12.6002 -12.378 -12.5045 -11.2928 -11.4195 -12.5045 -12.6002 -11.4195 -11.4756 -13.5457 -13.7148 -12.6002 -12.7353 -13.7148 -13.8507 -12.7353 -12.7726 -12.6002 -12.7353 -11.4756 -11