# vtk DataFile Version 3.0
#This file was generated by the deal.II library on 2015/9/3 at 12: 1: 0
ASCII
DATASET UNSTRUCTURED_GRID

POINTS 3200 double
0 0 0
0.05 0 0
0 0.05 0
0.05 0.05 0
0.05 0 0
0.1 0 0
0.05 0.05 0
0.1 0.05 0
0.1 0 0
0.15 0 0
0.1 0.05 0
0.15 0.05 0
0.15 0 0
0.2 0 0
0.15 0.05 0
0.2 0.05 0
0.2 0 0
0.25 0 0
0.2 0.05 0
0.25 0.05 0
0.25 0 0
0.3 0 0
0.25 0.05 0
0.3 0.05 0
0.3 0 0
0.35 0 0
0.3 0.05 0
0.35 0.05 0
0.35 0 0
0.4 0 0
0.35 0.05 0
0.4 0.05 0
0.4 0 0
0.45 0 0
0.4 0.05 0
0.45 0.05 0
0.45 0 0
0.5 0 0
0.45 0.05 0
0.5 0.05 0
0.5 0 0
0.55 0 0
0.5 0.05 0
0.55 0.05 0
0.55 0 0
0.6 0 0
0.55 0.05 0
0.6 0.05 0
0.6 0 0
0.65 0 0
0.6 0.05 0
0.65 0.05 0
0.65 0 0
0.7 0 0
0.65 0.05 0
0.7 0.05 0
0.7 0 0
0.75 0 0
0.7 0.05 0
0.75 0.05 0
0.75 0 0
0.8 0 0
0.75 0.05 0
0.8 0.05 0
0.8 0 0
0.85 0 0
0.8 0.05 0
0.85 0.05 0
0.85 0 0
0.9 0 0
0.85 0.05 0
0.9 0.05 0
0.9 0 0
0.95 0 0
0.9 0.05 0
0.95 0.05 0
0.95 0 0
1 0 0
0.95 0.05 0
1 0.05 0
1 0 0
1.05 0 0
1 0.05 0
1.05 0.05 0
1.05 0 0
1.1 0 0
1.05 0.05 0
1.1 0.05 0
1.1 0 0
1.15 0 0
1.1 0.05 0
1.15 0.05 0
1.15 0 0
1.2 0 0
1.15 0.05 0
1.2 0.05 0
1.2 0 0
1.25 0 0
1.2 0.05 0
1.25 0.05 0
1.25 0 0
1.3 0 0
1.25 0.05 0
1.3 0.05 0
1.3 0 0
1.35 0 0
1.3 0.05 0
1.35 0.05 0
1.35 0 0
1.4 0 0
1.35 0.05 0
1.4 0.05 0
1.4 0 0
1.45 0 0
1.4 0.05 0
1.45 0.05 0
1.45 0 0
1.5 0 0
1.45 0.05 0
1.5 0.05 0
1.5 0 0
1.55 0 0
1.5 0.05 0
1.55 0.05 0
1.55 0 0
1.6 0 0
1.55 0.05 0
1.6 0.05 0
1.6 0 0
1.65 0 0
1.6 0.05 0
1.65 0.05 0
1.65 0 0
1.7 0 0
1.65 0.05 0
1.7 0.05 0
1.7 0 0
1.75 0 0
1.7 0.05 0
1.75 0.05 0
1.75 0 0
1.8 0 0
1.75 0.05 0
1.8 0.05 0
1.8 0 0
1.85 0 0
1.8 0.05 0
1.85 0.05 0
1.85 0 0
1.9 0 0
1.85 0.05 0
1.9 0.05 0
1.9 0 0
1.95 0 0
1.9 0.05 0
1.95 0.05 0
1.95 0 0
2 0 0
1.95 0.05 0
2 0.05 0
0 0.05 0
0.05 0.05 0
0 0.1 0
0.05 0.1 0
0.05 0.05 0
0.1 0.05 0
0.05 0.1 0
0.1 0.1 0
0.1 0.05 0
0.15 0.05 0
0.1 0.1 0
0.15 0.1 0
0.15 0.05 0
0.2 0.05 0
0.15 0.1 0
0.2 0.1 0
0.2 0.05 0
0.25 0.05 0
0.2 0.1 0
0.25 0.1 0
0.25 0.05 0
0.3 0.05 0
0.25 0.1 0
0.3 0.1 0
0.3 0.05 0
0.35 0.05 0
0.3 0.1 0
0.35 0.1 0
0.35 0.05 0
0.4 0.05 0
0.35 0.1 0
0.4 0.1 0
0.4 0.05 0
0.45 0.05 0
0.4 0.1 0
0.45 0.1 0
0.45 0.05 0
0.5 0.05 0
0.45 0.1 0
0.5 0.1 0
0.5 0.05 0
0.55 0.05 0
0.5 0.1 0
0.55 0.1 0
0.55 0.05 0
0.6 0.05 0
0.55 0.1 0
0.6 0.1 0
0.6 0.05 0
0.65 0.05 0
0.6 0.1 0
0.65 0.1 0
0.65 0.05 0
0.7 0.05 0
0.65 0.1 0
0.7 0.1 0
0.7 0.05 0
0.75 0.05 0
0.7 0.1 0
0.75 0.1 0
0.75 0.05 0
0.8 0.05 0
0.75 0.1 0
0.8 0.1 0
0.8 0.05 0
0.85 0.05 0
0.8 0.1 0
0.85 0.1 0
0.85 0.05 0
0.9 0.05 0
0.85 0.1 0
0.9 0.1 0
0.9 0.05 0
0.95 0.05 0
0.9 0.1 0
0.95 0.1 0
0.95 0.05 0
1 0.05 0
0.95 0.1 0
1 0.1 0
1 0.05 0
1.05 0.05 0
1 0.1 0
1.05 0.1 0
1.05 0.05 0
1.1 0.05 0
1.05 0.1 0
1.1 0.1 0
1.1 0.05 0
1.15 0.05 0
1.1 0.1 0
1.15 0.1 0
1.15 0.05 0
1.2 0.05 0
1.15 0.1 0
1.2 0.1 0
1.2 0.05 0
1.25 0.05 0
1.2 0.1 0
1.25 0.1 0
1.25 0.05 0
1.3 0.05 0
1.25 0.1 0
1.3 0.1 0
1.3 0.05 0
1.35 0.05 0
1.3 0.1 0
1.35 0.1 0
1.35 0.05 0
1.4 0.05 0
1.35 0.1 0
1.4 0.1 0
1.4 0.05 0
1.45 0.05 0
1.4 0.1 0
1.45 0.1 0
1.45 0.05 0
1.5 0.05 0
1.45 0.1 0
1.5 0.1 0
1.5 0.05 0
1.55 0.05 0
1.5 0.1 0
1.55 0.1 0
1.55 0.05 0
1.6 0.05 0
1.55 0.1 0
1.6 0.1 0
1.6 0.05 0
1.65 0.05 0
1.6 0.1 0
1.65 0.1 0
1.65 0.05 0
1.7 0.05 0
1.65 0.1 0
1.7 0.1 0
1.7 0.05 0
1.75 0.05 0
1.7 0.1 0
1.75 0.1 0
1.75 0.05 0
1.8 0.05 0
1.75 0.1 0
1.8 0.1 0
1.8 0.05 0
1.85 0.05 0
1.8 0.1 0
1.85 0.1 0
1.85 0.05 0
1.9 0.05 0
1.85 0.1 0
1.9 0.1 0
1.9 0.05 0
1.95 0.05 0
1.9 0.1 0
1.95 0.1 0
1.95 0.05 0
2 0.05 0
1.95 0.1 0
2 0.1 0
0 0.1 0
0.05 0.1 0
0 0.15 0
0.05 0.15 0
0.05 0.1 0
0.1 0.1 0
0.05 0.15 0
0.1 0.15 0
0.1 0.1 0
0.15 0.1 0
0.1 0.15 0
0.15 0.15 0
0.15 0.1 0
0.2 0.1 0
0.15 0.15 0
0.2 0.15 0
0.2 0.1 0
0.25 0.1 0
0.2 0.15 0
0.25 0.15 0
0.25 0.1 0
0.3 0.1 0
0.25 0.15 0
0.3 0.15 0
0.3 0.1 0
0.35 0.1 0
0.3 0.15 0
0.35 0.15 0
0.35 0.1 0
0.4 0.1 0
0.35 0.15 0
0.4 0.15 0
0.4 0.1 0
0.45 0.1 0
0.4 0.15 0
0.45 0.15 0
0.45 0.1 0
0.5 0.1 0
0.45 0.15 0
0.5 0.15 0
0.5 0.1 0
0.55 0.1 0
0.5 0.15 0
0.55 0.15 0
0.55 0.1 0
0.6 0.1 0
0.55 0.15 0
0.6 0.15 0
0.6 0.1 0
0.65 0.1 0
0.6 0.15 0
0.65 0.15 0
0.65 0.1 0
0.7 0.1 0
0.65 0.15 0
0.7 0.15 0
0.7 0.1 0
0.75 0.1 0
0.7 0.15 0
0.75 0.15 0
0.75 0.1 0
0.8 0.1 0
0.75 0.15 0
0.8 0.15 0
0.8 0.1 0
0.85 0.1 0
0.8 0.15 0
0.85 0.15 0
0.85 0.1 0
0.9 0.1 0
0.85 0.15 0
0.9 0.15 0
0.9 0.1 0
0.95 0.1 0
0.9 0.15 0
0.95 0.15 0
0.95 0.1 0
1 0.1 0
0.95 0.15 0
1 0.15 0
1 0.1 0
1.05 0.1 0
1 0.15 0
1.05 0.15 0
1.05 0.1 0
1.1 0.1 0
1.05 0.15 0
1.1 0.15 0
1.1 0.1 0
1.15 0.1 0
1.1 0.15 0
1.15 0.15 0
1.15 0.1 0
1.2 0.1 0
1.15 0.15 0
1.2 0.15 0
1.2 0.1 0
1.25 0.1 0
1.2 0.15 0
1.25 0.15 0
1.25 0.1 0
1.3 0.1 0
1.25 0.15 0
1.3 0.15 0
1.3 0.1 0
1.35 0.1 0
1.3 0.15 0
1.35 0.15 0
1.35 0.1 0
1.4 0.1 0
1.35 0.15 0
1.4 0.15 0
1.4 0.1 0
1.45 0.1 0
1.4 0.15 0
1.45 0.15 0
1.45 0.1 0
1.5 0.1 0
1.45 0.15 0
1.5 0.15 0
1.5 0.1 0
1.55 0.1 0
1.5 0.15 0
1.55 0.15 0
1.55 0.1 0
1.6 0.1 0
1.55 0.15 0
1.6 0.15 0
1.6 0.1 0
1.65 0.1 0
1.6 0.15 0
1.65 0.15 0
1.65 0.1 0
1.7 0.1 0
1.65 0.15 0
1.7 0.15 0
1.7 0.1 0
1.75 0.1 0
1.7 0.15 0
1.75 0.15 0
1.75 0.1 0
1.8 0.1 0
1.75 0.15 0
1.8 0.15 0
1.8 0.1 0
1.85 0.1 0
1.8 0.15 0
1.85 0.15 0
1.85 0.1 0
1.9 0.1 0
1.85 0.15 0
1.9 0.15 0
1.9 0.1 0
1.95 0.1 0
1.9 0.15 0
1.95 0.15 0
1.95 0.1 0
2 0.1 0
1.95 0.15 0
2 0.15 0
0 0.15 0
0.05 0.15 0
0 0.2 0
0.05 0.2 0
0.05 0.15 0
0.1 0.15 0
0.05 0.2 0
0.1 0.2 0
0.1 0.15 0
0.15 0.15 0
0.1 0.2 0
0.15 0.2 0
0.15 0.15 0
0.2 0.15 0
0.15 0.2 0
0.2 0.2 0
0.2 0.15 0
0.25 0.15 0
0.2 0.2 0
0.25 0.2 0
0.25 0.15 0
0.3 0.15 0
0.25 0.2 0
0.3 0.2 0
0.3 0.15 0
0.35 0.15 0
0.3 0.2 0
0.35 0.2 0
0.35 0.15 0
0.4 0.15 0
0.35 0.2 0
0.4 0.2 0
0.4 0.15 0
0.45 0.15 0
0.4 0.2 0
0.45 0.2 0
0.45 0.15 0
0.5 0.15 0
0.45 0.2 0
0.5 0.2 0
0.5 0.15 0
0.55 0.15 0
0.5 0.2 0
0.55 0.2 0
0.55 0.15 0
0.6 0.15 0
0.55 0.2 0
0.6 0.2 0
0.6 0.15 0
0.65 0.15 0
0.6 0.2 0
0.65 0.2 0
0.65 0.15 0
0.7 0.15 0
0.65 0.2 0
0.7 0.2 0
0.7 0.15 0
0.75 0.15 0
0.7 0.2 0
0.75 0.2 0
0.75 0.15 0
0.8 0.15 0
0.75 0.2 0
0.8 0.2 0
0.8 0.15 0
0.85 0.15 0
0.8 0.2 0
0.85 0.2 0
0.85 0.15 0
0.9 0.15 0
0.85 0.2 0
0.9 0.2 0
0.9 0.15 0
0.95 0.15 0
0.9 0.2 0
0.95 0.2 0
0.95 0.15 0
1 0.15 0
0.95 0.2 0
1 0.2 0
1 0.15 0
1.05 0.15 0
1 0.2 0
1.05 0.2 0
1.05 0.15 0
1.1 0.15 0
1.05 0.2 0
1.1 0.2 0
1.1 0.15 0
1.15 0.15 0
1.1 0.2 0
1.15 0.2 0
1.15 0.15 0
1.2 0.15 0
1.15 0.2 0
1.2 0.2 0
1.2 0.15 0
1.25 0.15 0
1.2 0.2 0
1.25 0.2 0
1.25 0.15 0
1.3 0.15 0
1.25 0.2 0
1.3 0.2 0
1.3 0.15 0
1.35 0.15 0
1.3 0.2 0
1.35 0.2 0
1.35 0.15 0
1.4 0.15 0
1.35 0.2 0
1.4 0.2 0
1.4 0.15 0
1.45 0.15 0
1.4 0.2 0
1.45 0.2 0
1.45 0.15 0
1.5 0.15 0
1.45 0.2 0
1.5 0.2 0
1.5 0.15 0
1.55 0.15 0
1.5 0.2 0
1.55 0.2 0
1.55 0.15 0
1.6 0.15 0
1.55 0.2 0
1.6 0.2 0
1.6 0.15 0
1.65 0.15 0
1.6 0.2 0
1.65 0.2 0
1.65 0.15 0
1.7 0.15 0
1.65 0.2 0
1.7 0.2 0
1.7 0.15 0
1.75 0.15 0
1.7 0.2 0
1.75 0.2 0
1.75 0.15 0
1.8 0.15 0
1.75 0.2 0
1.8 0.2 0
1.8 0.15 0
1.85 0.15 0
1.8 0.2 0
1.85 0.2 0
1.85 0.15 0
1.9 0.15 0
1.85 0.2 0
1.9 0.2 0
1.9 0.15 0
1.95 0.15 0
1.9 0.2 0
1.95 0.2 0
1.95 0.15 0
2 0.15 0
1.95 0.2 0
2 0.2 0
0 0.2 0
0.05 0.2 0
0 0.25 0
0.05 0.25 0
0.05 0.2 0
0.1 0.2 0
0.05 0.25 0
0.1 0.25 0
0.1 0.2 0
0.15 0.2 0
0.1 0.25 0
0.15 0.25 0
0.15 0.2 0
0.2 0.2 0
0.15 0.25 0
0.2 0.25 0
0.2 0.2 0
0.25 0.2 0
0.2 0.25 0
0.25 0.25 0
0.25 0.2 0
0.3 0.2 0
0.25 0.25 0
0.3 0.25 0
0.3 0.2 0
0.35 0.2 0
0.3 0.25 0
0.35 0.25 0
0.35 0.2 0
0.4 0.2 0
0.35 0.25 0
0.4 0.25 0
0.4 0.2 0
0.45 0.2 0
0.4 0.25 0
0.45 0.25 0
0.45 0.2 0
0.5 0.2 0
0.45 0.25 0
0.5 0.25 0
0.5 0.2 0
0.55 0.2 0
0.5 0.25 0
0.55 0.25 0
0.55 0.2 0
0.6 0.2 0
0.55 0.25 0
0.6 0.25 0
0.6 0.2 0
0.65 0.2 0
0.6 0.25 0
0.65 0.25 0
0.65 0.2 0
0.7 0.2 0
0.65 0.25 0
0.7 0.25 0
0.7 0.2 0
0.75 0.2 0
0.7 0.25 0
0.75 0.25 0
0.75 0.2 0
0.8 0.2 0
0.75 0.25 0
0.8 0.25 0
0.8 0.2 0
0.85 0.2 0
0.8 0.25 0
0.85 0.25 0
0.85 0.2 0
0.9 0.2 0
0.85 0.25 0
0.9 0.25 0
0.9 0.2 0
0.95 0.2 0
0.9 0.25 0
0.95 0.25 0
0.95 0.2 0
1 0.2 0
0.95 0.25 0
1 0.25 0
1 0.2 0
1.05 0.2 0
1 0.25 0
1.05 0.25 0
1.05 0.2 0
1.1 0.2 0
1.05 0.25 0
1.1 0.25 0
1.1 0.2 0
1.15 0.2 0
1.1 0.25 0
1.15 0.25 0
1.15 0.2 0
1.2 0.2 0
1.15 0.25 0
1.2 0.25 0
1.2 0.2 0
1.25 0.2 0
1.2 0.25 0
1.25 0.25 0
1.25 0.2 0
1.3 0.2 0
1.25 0.25 0
1.3 0.25 0
1.3 0.2 0
1.35 0.2 0
1.3 0.25 0
1.35 0.25 0
1.35 0.2 0
1.4 0.2 0
1.35 0.25 0
1.4 0.25 0
1.4 0.2 0
1.45 0.2 0
1.4 0.25 0
1.45 0.25 0
1.45 0.2 0
1.5 0.2 0
1.45 0.25 0
1.5 0.25 0
1.5 0.2 0
1.55 0.2 0
1.5 0.25 0
1.55 0.25 0
1.55 0.2 0
1.6 0.2 0
1.55 0.25 0
1.6 0.25 0
1.6 0.2 0
1.65 0.2 0
1.6 0.25 0
1.65 0.25 0
1.65 0.2 0
1.7 0.2 0
1.65 0.25 0
1.7 0.25 0
1.7 0.2 0
1.75 0.2 0
1.7 0.25 0
1.75 0.25 0
1.75 0.2 0
1.8 0.2 0
1.75 0.25 0
1.8 0.25 0
1.8 0.2 0
1.85 0.2 0
1.8 0.25 0
1.85 0.25 0
1.85 0.2 0
1.9 0.2 0
1.85 0.25 0
1.9 0.25 0
1.9 0.2 0
1.95 0.2 0
1.9 0.25 0
1.95 0.25 0
1.95 0.2 0
2 0.2 0
1.95 0.25 0
2 0.25 0
0 0.25 0
0.05 0.25 0
0 0.3 0
0.05 0.3 0
0.05 0.25 0
0.1 0.25 0
0.05 0.3 0
0.1 0.3 0
0.1 0.25 0
0.15 0.25 0
0.1 0.3 0
0.15 0.3 0
0.15 0.25 0
0.2 0.25 0
0.15 0.3 0
0.2 0.3 0
0.2 0.25 0
0.25 0.25 0
0.2 0.3 0
0.25 0.3 0
0.25 0.25 0
0.3 0.25 0
0.25 0.3 0
0.3 0.3 0
0.3 0.25 0
0.35 0.25 0
0.3 0.3 0
0.35 0.3 0
0.35 0.25 0
0.4 0.25 0
0.35 0.3 0
0.4 0.3 0
0.4 0.25 0
0.45 0.25 0
0.4 0.3 0
0.45 0.3 0
0.45 0.25 0
0.5 0.25 0
0.45 0.3 0
0.5 0.3 0
0.5 0.25 0
0.55 0.25 0
0.5 0.3 0
0.55 0.3 0
0.55 0.25 0
0.6 0.25 0
0.55 0.3 0
0.6 0.3 0
0.6 0.25 0
0.65 0.25 0
0.6 0.3 0
0.65 0.3 0
0.65 0.25 0
0.7 0.25 0
0.65 0.3 0
0.7 0.3 0
0.7 0.25 0
0.75 0.25 0
0.7 0.3 0
0.75 0.3 0
0.75 0.25 0
0.8 0.25 0
0.75 0.3 0
0.8 0.3 0
0.8 0.25 0
0.85 0.25 0
0.8 0.3 0
0.85 0.3 0
0.85 0.25 0
0.9 0.25 0
0.85 0.3 0
0.9 0.3 0
0.9 0.25 0
0.95 0.25 0
0.9 0.3 0
0.95 0.3 0
0.95 0.25 0
1 0.25 0
0.95 0.3 0
1 0.3 0
1 0.25 0
1.05 0.25 0
1 0.3 0
1.05 0.3 0
1.05 0.25 0
1.1 0.25 0
1.05 0.3 0
1.1 0.3 0
1.1 0.25 0
1.15 0.25 0
1.1 0.3 0
1.15 0.3 0
1.15 0.25 0
1.2 0.25 0
1.15 0.3 0
1.2 0.3 0
1.2 0.25 0
1.25 0.25 0
1.2 0.3 0
1.25 0.3 0
1.25 0.25 0
1.3 0.25 0
1.25 0.3 0
1.3 0.3 0
1.3 0.25 0
1.35 0.25 0
1.3 0.3 0
1.35 0.3 0
1.35 0.25 0
1.4 0.25 0
1.35 0.3 0
1.4 0.3 0
1.4 0.25 0
1.45 0.25 0
1.4 0.3 0
1.45 0.3 0
1.45 0.25 0
1.5 0.25 0
[...]
POINT_DATA 3200
SCALARS x_displacement double 1
LOOKUP_TABLE default
0 -1.97345 0 -1.00594 -1.97345 -3.36503 -1.00594 -2.11077 -3.36503 -4.44202 -2.11077 -3.05323 -4.44202 -5.35897 -3.05323 -3.85203 -5.35897 -6.19016 -3.85203 -4.56731 -6.19016 -6.98433 -4.56731 -5.25808 -6.98433 -7.77044 -5.25808 -5.95348 -7.77044 -8.56237 -5.95348 -6.66241 -8.56237 -9.36574 -6.66241 -7.38564 -9.36574 -10.181 -7.38564 -8.12091 -10.181 -11.0058 -8.12091 -8.86493 -11.0058 -11.8366 -8.86493 -9.61353 -11.8366 -12.6697 -9.61353 -10.3618 -12.6697 -13.5014 -10.3618 -11.1047 -13.5014 -14.3291 -11.1047 -11.8367 -14.3291 -15.1515 -11.8367 -12.5523 -15.1515 -15.9694 -12.5523 -13.2456 -15.9694 -16.7853 -13.2456 -13.9139 -16.7853 -17.6014 -13.9139 -14.5684 -17.6014 -18.4144 -14.5684 -15.2282 -18.4144 -19.2092 -15.2282 -15.8901 -19.2092 -19.9601 -15.8901 -16.5385 -19.9601 -20.6305 -16.5385 -17.153 -20.6305 -21.1801 -17.153 -17.7078 -21.1801 -21.6202 -17.7078 -18.2238 -21.6202 -22.0566 -18.2238 -18.8103 -22.0566 -22.5217 -18.8103 -19.4611 -22.5217 -23.0572 -19.4611 -20.0521 -23.0572 -23.6026 -20.0521 -20.5353 -23.6026 -23.9456 -20.5353 -21.0046 -23.9456 -24.0769 -21.0046 -21.4777 -24.0769 -24.606 -21.4777 -21.7283 -24.606 -25.3389 -21.7283 -21.8022 -25.3389 -25.7073 -21.8022 -22.3431 -25.7073 -25.956 -22.3431 -22.5562 -25.956 -26.0124 -22.5562 -22.7074 -26.0124 -25.9919 -22.7074 -22.8124 -25.9919 -25.9496 -22.8124 -22.8388 -25.9496 -25.9103 -22.8388 -22.8474 -25.9103 -25.8998 -22.8474 -22.85 0 -1.00594 0 -0.491021 -1.00594 -2.11077 -0.491021 -1.32725 -2.11077 -3.05323 -1.32725 -1.98383 -3.05323 -3.85203 -1.98383 -2.54762 -3.85203 -4.56731 -2.54762 -3.05407 -4.56731 -5.25808 -3.05407 -3.56351 -5.25808 -5.95348 -3.56351 -4.12998 -5.95348 -6.66241 -4.12998 -4.74473 -6.66241 -7.38564 -4.74473 -5.38703 -7.38564 -8.12091 -5.38703 -6.04798 -8.12091 -8.86493 -6.04798 -6.7215 -8.86493 -9.61353 -6.7215 -7.40105 -9.61353 -10.3618 -7.40105 -8.07918 -10.3618 -11.1047 -8.07918 -8.74815 -11.1047 -11.8367 -8.74815 -9.39972 -11.8367 -12.5523 -9.39972 -10.0233 -12.5523 -13.2456 -10.0233 -10.6076 -13.2456 -13.9139 -10.6076 -11.1485 -13.9139 -14.5684 -11.1485 -11.665 -14.5684 -15.2282 -11.665 -12.19 -15.2282 -15.8901 -12.19 -12.7313 -15.8901 -16.5385 -12.7313 -13.2834 -16.5385 -17.153 -13.2834 -13.8414 -17.153 -17.7078 -13.8414 -14.411 -17.7078 -18.2238 -14.411 -15.0229 -18.2238 -18.8103 -15.0229 -15.6998 -18.8103 -19.4611 -15.6998 -16.3226 -19.4611 -20.0521 -16.3226 -16.8353 -20.0521 -20.5353 -16.8353 -17.3601 -20.5353 -21.0046 -17.3601 -17.8952 -21.0046 -21.4777 -17.8952 -18.3265 -21.4777 -21.7283 -18.3265 -18.6973 -21.7283 -21.8022 -18.6973 -19.0245 -21.8022 -22.3431 -19.0245 -19.126 -22.3431 -22.5562 -19.126 -19.3389 -22.5562 -22.7074 -19.3389 -19.6612 -22.7074 -22.8124 -19.6612 -19.7204 -22.8124 -22.8388 -19.7204 -19.8067 -22.8388 -22.8474 -19.8067 -19.8191 -22.8474 -22.85 -19.8191 -19.8304 0 -0.491021 0 -0.17802 -0.491021 -1.32725 -0.17802 -0.614468 -1.32725 -1.98383 -0.614468 -1.02677 -1.98383 -2.54762 -1.02677 -1.49206 -2.54762 -3.05407 -1.49206 -1.88157 -3.05407 -3.56351 -1.88157 -2.24302 -3.56351 -4.12998 -2.24302 -2.64352 -4.12998 -4.74473 -2.64352 -3.11712 -4.74473 -5.38703 -3.11712 -3.66347 -5.38703 -6.04798 -3.66347 -4.2704 -6.04798 -6.7215 -4.2704 -4.92852 -6.7215 -7.40105 -4.92852 -5.62808 -7.40105 -8.07918 -5.62808 -6.35394 -8.07918 -8.74815 -6.35394 -7.07959 -8.74815 -9.39972 -7.07959 -7.76781 -9.39972 -10.0233 -7.76781 -8.38378 -10.0233 -10.6076 -8.38378 -8.91281 -10.6076 -11.1485 -8.91281 -9.37406 -11.1485 -11.665 -9.37406 -9.80341 -11.665 -12.19 -9.80341 -10.2174 -12.19 -12.7313 -10.2174 -10.6114 -12.7313 -13.2834 -10.6114 -10.9766 -13.2834 -13.8414 -10.9766 -11.3175 -13.8414 -14.411 -11.3175 -11.6694 -14.411 -15.0229 -11.6694 -12.0863 -15.0229 -15.6998 -12.0863 -12.5803 -15.6998 -16.3226 -12.5803 -13.1 -16.3226 -16.8353 -13.1 -13.6504 -16.8353 -17.3601 -13.6504 -14.2319 -17.3601 -17.8952 -14.2319 -14.7034 -17.8952 -18.3265 -14.7034 -15.1644 -18.3265 -18.6973 -15.1644 -15.6148 -18.6973 -19.0245 -15.6148 -15.9792 -19.0245 -19.126 -15.9792 -16.2845 -19.126 -19.3389 -16.2845 -16.4689 -19.3389 -19.6612 -16.4689 -16.4549 -19.6612 -19.7204 -16.4549 -16.864 -19.7204 -19.8067 -16.864 -16.8804 -19.8067 -19.8191 -16.8804 -16.9037 -19.8191 -19.8304 -16.9037 -16.9311 0 -0.17802 0 0.311719 -0.17802 -0.614468 0.311719 0.156451 -0.614468 -1.02677 0.156451 -0.295979 -1.02677 -1.49206 -0.295979 -0.685218 -1.49206 -1.88157 -0.685218 -1.01779 -1.88157 -2.24302 -1.01779 -1.34889 -2.24302 -2.64352 -1.34889 -1.71373 -2.64352 -3.11712 -1.71373 -2.14852 -3.11712 -3.66347 -2.14852 -2.67808 -3.66347 -4.2704 -2.67808 -3.30322 -4.2704 -4.92852 -3.30322 -4.00938 -4.92852 -5.62808 -4.00938 -4.77599 -5.62808 -6.35394 -4.77599 -5.57091 -6.35394 -7.07959 -5.57091 -6.34305 -7.07959 -7.76781 -6.34305 -7.03216 -7.76781 -8.38378 -7.03216 -7.60306 -8.38378 -8.91281 -7.60306 -8.06111 -8.91281 -9.37406 -8.06111 -8.43222 -9.37406 -9.80341 -8.43222 -8.73924 -9.80341 -10.2174 -8.73924 -8.9969 -10.2174 -10.6114 -8.9969 -9.21413 -10.6114 -10.9766 -9.21413 -9.39995 -10.9766 -11.3175 -9.39995 -9.57308 -11.3175 -11.6694 -9.57308 -9.75631 -11.6694 -12.0863 -9.75631 -9.94566 -12.0863 -12.5803 -9.94566 -10.1042 -12.5803 -13.1 -10.1042 -10.263 -13.1 -13.6504 -10.263 -10.6079 -13.6504 -14.2319 -10.6079 -11.0664 -14.2319 -14.7034 -11.0664 -11.5567 -14.7034 -15.1644 -11.5567 -12.087 -15.1644 -15.6148 -12.087 -12.5303 -15.6148 -15.9792 -12.5303 -12.9623 -15.9792 -16.2845 -12.9623 -13.3084 -16.2845 -16.4689 -13.3084 -13.5766 -16.4689 -16.4549 -13.5766 -13.8301 -16.4549 -16.864 -13.8301 -13.8778 -16.864 -16.8804 -13.8778 -14.2203 -16.8804 -16.9037 -14.2203 -14.1911 -16.9037 -16.9311 -14.1911 -14.1126 0 0.311719 0 1.07856 0.311719 0.156451 1.07856 0.402487 0.156451 -0.295979 0.402487 0.270486 -0.295979 -0.685218 0.270486 0.0331309 -0.685218 -1.01779 0.0331309 -0.242 -1.01779 -1.34889 -0.242 -0.533411 -1.34889 -1.71373 -0.533411 -0.858662 -1.71373 -2.14852 -0.858662 -1.24344 -2.14852 -2.67808 -1.24344 -1.71756 -2.67808 -3.30322 -1.71756 -2.29845 -3.30322 -4.00938 -2.29845 -2.97747 -4.00938 -4.77599 -2.97747 -3.72966 -4.77599 -5.57091 -3.72966 -4.52194 -5.57091 -6.34305 -4.52194 -5.30774 -6.34305 -7.03216 -5.30774 -6.02572 -7.03216 -7.60306 -6.02572 -6.62233 -7.60306 -8.06111 -6.62233 -7.0766 -8.06111 -8.43222 -7.0766 -7.39774 -8.43222 -8.73924 -7.39774 -7.6101 -8.73924 -8.9969 -7.6101 -7.74053 -8.9969 -9.21413 -7.74053 -7.81494 -9.21413 -9.39995 -7.81494 -7.86065 -9.39995 -9.57308 -7.86065 -7.90365 -9.57308 -9.75631 -7.90365 -7.95959 -9.75631 -9.94566 -7.95959 -8.03229 -9.94566 -10.1042 -8.03229 -8.12983 -10.1042 -10.263 -8.12983 -8.24981 -10.263 -10.6079 -8.24981 -8.29173 -10.6079 -11.0664 -8.29173 -8.27403 -11.0664 -11.5567 -8.27403 -8.56543 -11.5567 -12.087 -8.56543 -9.03953 -12.087 -12.5303 -9.03953 -9.54275 -12.5303 -12.9623 -9.54275 -10.0017 -12.9623 -13.3084 -10.0017 -10.3954 -13.3084 -13.5766 -10.3954 -10.7989 -13.5766 -13.8301 -10.7989 -11.1243 -13.8301 -13.8778 -11.1243 -11.3766 -13.8778 -14.2203 -11.3766 -11.476 -14.2203 -14.1911 -11.476 -11.3731 -14.1911 -14.1126 -11.3731 -11.5949 0 1.07856 0 0.527907 1.07856 0.402487 0.527907 1.34494 0.402487 0.270486 1.34494 0.931654 0.270486 0.0331309 0.931654 0.676289 0.0331309 -0.242 0.676289 0.439509 -0.242 -0.533411 0.439509 0.182045 -0.533411 -0.858662 0.182045 -0.107339 -0.858662 -1.24344 -0.107339 -0.450332 -1.24344 -1.71756 -0.450332 -0.874475 -1.71756 -2.29845 -0.874475 -1.40142 -2.29845 -2.97747 -1.40142 -2.03132 -2.97747 -3.72966 -2.03132 -2.73719 -3.72966 -4.52194 -2.73719 -3.47845 -4.52194 -5.30774 -3.47845 -4.21139 -5.30774 -6.02572 -4.21139 -4.89138 -6.02572 -6.62233 -4.89138 -5.47148 -6.62233 -7.0766 -5.47148 -5.9121 -7.0766 -7.39774 -5.9121 -6.19908 -7.39774 -7.6101 -6.19908 -6.3473 -7.6101 -7.74053 -6.3473 -6.39218 -7.74053 -7.81494 -6.39218 -6.37563 -7.81494 -7.86065 -6.37563 -6.33478 -7.86065 -7.90365 -6.33478 -6.29563 -7.90365 -7.95959 -6.29563 -6.27233 -7.95959 -8.03229 -6.27233 -6.27229 -8.03229 -8.12983 -6.27229 -6.29791 -8.12983 -8.24981 -6.29791 -6.33444 -8.24981 -8.29173 -6.33444 -6.37849 -8.29173 -8.27403 -6.37849 -6.42588 -8.27403 -8.56543 -6.42588 -6.33391 -8.56543 -9.03953 -6.33391 -6.29173 -9.03953 -9.54275 -6.29173 -6.66063 -9.54275 -10.0017 -6.66063 -7.14228 -10.0017 -10.3954 -7.14228 -7.6557 -10.3954 -10.7989 -7.6557 -8.07159 -10.7989 -11.1243 -8.07159 -8.46971 -11.1243 -11.3766 -8.46971 -8.79115 -11.3766 -11.476 -8.79115 -9.05471 -11.476 -11.3731 -9.05471 -9.35849 -11.3731 -11.5949 -9.35849 -9.2539 0 0.527907 0 0.543391 0.527907 1.34494 0.543391 1.26128 1.34494 0.931654 1.26128 1.35324 0.931654 0.676289 1.35324 1.13767 0.676289 0.439509 1.13767 0.935642 0.439509 0.182045 0.935642 0.721128 0.182045 -0.107339 0.721128 0.468215 -0.107339 -0.450332 0.468215 0.160761 -0.450332 -0.874475 0.160761 -0.220858 -0.874475 -1.40142 -0.220858 -0.693201 -1.40142 -2.03132 -0.693201 -1.25269 -2.03132 -2.73719 -1.25269 -1.87049 -2.73719 -3.47845 -1.87049 -2.50624 -3.47845 -4.21139 -2.50624 -3.12275 -4.21139 -4.89138 -3.12275 -3.68867 -4.89138 -5.47148 -3.68867 -4.175 -5.47148 -5.9121 -4.175 -4.551 -5.9121 -6.19908 -4.551 -4.79235 -6.19908 -6.3473 -4.79235 -4.90133 -6.3473 -6.39218 -4.90133 -4.90795 -6.39218 -6.37563 -4.90795 -4.85383 -6.37563 -6.33478 -4.85383 -4.77653 -6.33478 -6.29563 -4.77653 -4.70289 -6.29563 -6.27233 -4.70289 -4.64918 -6.27233 -6.27229 -4.64918 -4.62249 -6.27229 -6.29791 -4.62249 -4.61933 -6.29791 -6.33444 -4.61933 -4.62994 -6.33444 -6.37849 -4.62994 -4.6416 -6.37849 -6.42588 -4.6416 -4.62766 -6.42588 -6.33391 -4.62766 -4.60229 -6.33391 -6.29173 -4.60229 -4.52403 -6.29173 -6.66063 -4.52403 -4.32107 -6.66063 -7.14228 -4.32107 -4.53268 -7.14228 -7.6557 -4.53268 -4.98892 -7.6557 -8.07159 -4.98892 -5.44954 -8.07159 -8.46971 -5.44954 -5.91415 -8.46971 -8.79115 -5.91415 -6.31053 -8.79115 -9.05471 -6.31053 -6.73582 -9.05471 -9.35849 -6.73582 -7.09603 -9.35849 -9.2539 -7.09603 -7.52572 0 0.543391 0 0.376397 0.543391 1.26128 0.376397 0.8323 1.26128 1.35324 0.8323 1.67653 1.35324 1.13767 1.67653 1.38386 1.13767 0.935642 1.38386 1.14801 0.935642 0.721128 1.14801 0.957829 0.721128 0.468215 0.957829 0.750347 0.468215 0.160761 0.750347 0.492155 0.160761 -0.220858 0.492155 0.165265 -0.220858 -0.693201 0.165265 -0.231819 -0.693201 -1.25269 -0.231819 -0.681317 -1.25269 -1.87049 -0.681317 -1.15466 -1.87049 -2.50624 -1.15466 -1.62407 -2.50624 -3.12275 -1.62407 -2.06808 -3.12275 -3.68867 -2.06808 -2.47008 -3.68867 -4.175 -2.47008 -2.81346 -4.175 -4.551 -2.81346 -3.07954 -4.551 -4.79235 -3.07954 -3.2521 -4.79235 -4.90133 -3.2521 -3.32787 -4.90133 -4.90795 -3.32787 -3.32373 -4.90795 -4.85383 -3.32373 -3.2692 -4.85383 -4.77653 -3.2692 -3.19439 -4.77653 -4.70289 -3.19439 -3.1229 -4.70289 -4.64918 -3.1229 -3.06948 -4.64918 -4.62249 -3.06948 -3.03954 -4.62249 -4.61933 -3.03954 -3.03068 -4.61933 -4.62994 -3.03068 -3.03442 -4.62994 -4.6416 -3.03442 -3.03582 -4.6416 -4.62766 -3.03582 -3.02265 -4.62766 -4.60229 -3.02265 -2.97985 -4.60229 -4.52403 -2.97985 -2.89895 -4.52403 -4.32107 -2.89895 -2.81903 -4.32107 -4.53268 -2.81903 -2.63202 -4.53268 -4.98892 -2.63202 -2.63516 -4.98892 -5.44954 -2.63516 -3.05235 -5.44954 -5.91415 -3.05235 -3.53004 -5.91415 -6.31053 -3.53004 -4.01113 -6.31053 -6.73582 -4.01113 -4.4136 -6.73582 -7.09603 -4.4136 -4.80292 -7.09603 -7.52572 -4.80292 -5.14068 0 0.376397 0 0.182936 0.376397 0.8323 0.182936 0.41598 0.8323 1.67653 0.41598 0.595674 1.67653 1.38386 0.595674 1.09761 1.38386 1.14801 1.09761 0.873266 1.14801 0.957829 0.873266 0.746946 0.957829 0.750347 0.746946 0.618597 0.750347 0.492155 0.618597 0.442527 0.492155 0.165265 0.442527 0.21886 0.165265 -0.231819 0.21886 -0.0333557 -0.231819 -0.681317 -0.0333557 -0.294729 -0.681317 -1.15466 -0.294729 -0.552904 -1.15466 -1.62407 -0.552904 -0.800614 -1.62407 -2.06808 -0.800614 -1.03174 -2.06808 -2.47008 -1.03174 -1.23949 -2.47008 -2.81346 -1.23949 -1.41585 -2.81346 -3.07954 -1.41585 -1.55198 -3.07954 -3.2521 -1.55198 -1.64063 -3.2521 -3.32787 -1.64063 -1.67995 -3.32787 -3.32373 -1.67995 -1.6764 -3.32373 -3.2692 -1.6764 -1.64399 -3.2692 -3.19439 -1.64399 -1.59935 -3.19439 -3.1229 -1.59935 -1.55671 -3.1229 -3.06948 -1.55671 -1.52497 -3.06948 -3.03954 -1.52497 -1.50712 -3.03954 -3.03068 -1.50712 -1.50111 -3.03068 -3.03442 -1.50111 -1.50117 -3.03442 -3.03582 -1.50117 -1.50062 -3.03582 -3.02265 -1.50062 -1.49235 -3.02265 -2.97985 -1.49235 -1.46954 -2.97985 -2.89895 -1.46954 -1.43082 -2.89895 -2.81903 -1.43082 -1.35948 -2.81903 -2.63202 -1.35948 -1.27682 -2.63202 -2.63516 -1.27682 -1.17314 -2.63516 -3.05235 -1.17314 -1.1687 -3.05235 -3.53004 -1.1687 -1.47667 -3.53004 -4.01113 -1.47667 -1.82157 -4.01113 -4.4136 -1.82157 -2.14451 -4.4136 -4.80292 -2.14451 -2.54785 -4.80292 -5.14068 -2.54785 -2.64902 0 0.182936 0 1.27313e-09 0.182936 0.41598 1.27313e-09 6.83434e-10 0.41598 0.595674 6.83434e-10 5.16527e-11 0.595674 1.09761 5.16527e-11 -8.63634e-10 1.09761 0.873266 -8.63634e-10 -5.8209e-11 0.873266 0.746946 -5.8209e-11 -1.57086e-11 0.746946 0.618597 -1.57086e-11 -1.22206e-11 0.618597 0.442527 -1.22206e-11 -1.36048e-11 0.442527 0.21886 -1.36048e-11 -1.15597e-11 0.21886 -0.0333557 -1.15597e-11 -9.76438e-12 -0.0333557 -0.294729 -9.76438e-12 -7.16523e-12 -0.294729 -0.552904 -7.16523e-12 -5.26647e-12 -0.552904 -0.800614 -5.26647e-12 -4.82105e-12 -0.800614 -1.03174 -4.82105e-12 -4.15444e-12 -1.03174 -1.23949 -4.15444e-12 -4.50817e-12 -1.23949 -1.41585 -4.50817e-12 -5.0436e-12 -1.41585 -1.55198 -5.0436e-12 -5.87797e-12 -1.55198 -1.64063 -5.87797e-12 -7.0504e-12 -1.64063 -1.67995 -7.0504e-12 -8.61123e-12 -1.67995 -1.6764 -8.61123e-12 -1.02676e-11 -1.6764 -1.64399 -1.02676e-11 -1.16686e-11 -1.64399 -1.59935 -1.16686e-11 -1.33556e-11 -1.59935 -1.55671 -1.33556e-11 -1.54016e-11 -1.55671 -1.52497 -1.54016e-11 -1.70264e-11 -1.52497 -1.50712 -1.70264e-11 -1.90215e-11 -1.50712 -1.50111 -1.90215e-11 -2.05339e-11 -1.50111 -1.50117 -2.05339e-11 -2.13667e-11 -1.50117 -1.50062 -2.13667e-11 -2.16035e-11 -1.50062 -1.49235 -2.16035e-11 -2.06563e-11 -1.49235 -1.46954 -2.06563e-11 -1.88715e-11 -1.46954 -1.43082 -1.88715e-11 -1.41419e-11 -1.43082 -1.35948 -1.41419e-11 -9.6035e-12 -1.35948 -1.27682 -9.6035e-12 -5.67042e-12 -1.27682 -1.17314 -5.67042e-12 -1.5975e-12 -1.17314 -1.1687 -1.5975e-12 3.44814e-12 -1.1687 -1.47667 3.44814e-12 1.55438e-12 -1.47667 -1.82157 1.55438e-12 -1.89536e-12 -1.82157 -2.14451 -1.89536e-12 -5.28157e-12 -2.14451 -2.54785 -5.28157e-12 -7.10174e-12 -2.54785 -2.64902 -7.10174e-12 -7.89406e-12 0 1.27313e-09 0 -0.182936 1.27313e-09 6.83434e-10 -0.182936 -0.41598 6.83434e-10 5.16527e-11 -0.41598 -0.595674 5.16527e-11 -8.63634e-10 -0.595674 -1.09761 -8.63634e-10 -5.8209e-11 -1.09761 -0.873266 -5.8209e-11 -1.57086e-11 -0.873266 -0.746946 -1.57086e-11 -1.22206e-11 -0.746946 -0.618597 -1.22206e-11 -1.36048e-11 -0.618597 -0.442527 -1.36048e-11 -1.15597e-11 -0.442527 -0.21886 -1.15597e-11 -9.76438e-12 -0.21886 0.0333557 -9.76438e-12 -7.16523e-12 0.0333557 0.294729 -7.16523e-12 -5.26647e-12 0.294729 0.552904 -5.26647e-12 -4.82105e-12 0.552904 0.800614 -4.82105e-12 -4.15444e-12 0.800614 1.03174 -4.15444e-12 -4.50817e-12 1.03174 1.23949 -4.50817e-12 -5.0436e-12 1.23949 1.41585 -5.0436e-12 -5.87797e-12 1.41585 1.55198 -5.87797e-12 -7.0504e-12 1.55198 1.64063 -7.0504e-12 -8.61123e-12 1.64063 1.67995 -8.61123e-12 -1.02676e-11 1.67995 1.6764 -1.02676e-11 -1.16686e-11 1.6764 1.64399 -1.16686e-11 -1.33556e-11 1.64399 1.59935 -1.33556e-11 -1.54016e-11 1.59935 1.55671 -1.54016e-11 -1.70264e-11 1.55671 1.52497 -1.70264e-11 -1.90215e-11 1.52497 1.50712 -1.90215e-11 -2.05339e-11 1.50712 1.50111 -2.05339e-11 -2.13667e-11 1.50111 1.50117 -2.13667e-11 -2.16035e-11 1.50117 1.50062 -2.16035e-11 -2.06563e-11 1.50062 1.49235 -2.06563e-11 -1.88715e-11 1.49235 1.46954 -1.88715e-11 -1.41419e-11 1.46954 1.43082 -1.41419e-11 -9.6035e-12 1.43082 1.35948 -9.6035e-12 -5.67042e-12 1.35948 1.27682 -5.67042e-12 -1.5975e-12 1.27682 1.17314 -1.5975e-12 3.44814e-12 1.17314 1.1687 3.44814e-12 1.55438e-12 1.1687 1.47667 1.55438e-12 -1.89536e-12 1.47667 1.82157 -1.89536e-12 -5.28157e-12 1.82157 2.14451 -5.28157e-12 -7.10174e-12 2.14451 2.54785 -7.10174e-12 -7.89406e-12 2.54785 2.64902 0 -0.182936 0 -0.376397 -0.182936 -0.41598 -0.376397 -0.8323 -0.41598 -0.595674 -0.8323 -1.67653 -0.595674 -1.09761 -1.67653 -1.38386 -1.09761 -0.873266 -1.38386 -1.14801 -0.873266 -0.746946 -1.14801 -0.957829 -0.746946 -0.618597 -0.957829 -0.750347 -0.618597 -0.442527 -0.750347 -0.492155 -0.442527 -0.21886 -0.492155 -0.165265 -0.21886 0.0333557 -0.165265 0.231819 0.0333557 0.294729 0.231819 0.681317 0.294729 0.552904 0.681317 1.15466 0.552904 0.800614 1.15466 1.62407 0.800614 1.03174 1.62407 2.06808 1.03174 1.23949 2.06808 2.47008 1.23949 1.41585 2.47008 2.81346 1.41585 1.55198 2.81346 3.07954 1.55198 1.64063 3.07954 3.2521 1.64063 1.67995 3.2521 3.32787 1.67995 1.6764 3.32787 3.32373 1.6764 1.64399 3.32373 3.2692 1.64399 1.59935 3.2692 3.19439 1.59935 1.55671 3.19439 3.1229 1.55671 1.52497 3.1229 3.06948 1.52497 1.50712 3.06948 3.03954 1.50712 1.50111 3.03954 3.03068 1.50111 1.50117 3.03068 3.03442 1.50117 1.50062 3.03442 3.03582 1.50062 1.49235 3.03582 3.02265 1.49235 1.46954 3.02265 2.97985 1.46954 1.43082 2.97985 2.89895 1.43082 1.35948 2.89895 2.81903 1.35948 1.27682 2.81903 2.63202 1.27682 1.17314 2.63202 2.63516 1.17314 1.1687 2.63516 3.05235 1.1687 1.47667 3.05235 3.53004 1.47667 1.82157 3.53004 4.01113 1.82157 2.14451 4.01113 4.4136 2.14451 2.54785 4.4136 4.80292 2.54785 2.64902 4.80292 5.14068 0 -0.376397 0 -0.543391 -0.376397 -0.8323 -0.543391 -1.26128 -0.8323 -1.67653 -1.26128 -1.35324 -1.67653 -1.38386 -1.35324 -1.13767 -1.38386 -1.14801 -1.13767 -0.935642 -1.14801 -0.957829 -0.935642 -0.721128 -0.957829 -0.750347 -0.721128 -0.468215 -0.750347 -0.492155 -0.468215 -0.160761 -0.492155 -0.165265 -0.160761 0.220858 -0.165265 0.231819 0.220858 0.693201 0.231819 0.681317 0.693201 1.25269 0.681317 1.15466 1.25269 1.87049 1.15466 1.62407 1.87049 2.50624 1.62407 2.06808 2.50624 3.12275 2.06808 2.47008 3.12275 3.68867 2.47008 2.81346 3.68867 4.175 2.81346 3.07954 4.175 4.551 3.07954 3.2521 4.551 4.79235 3.2521 3.32787 4.79235 4.90133 3.32787 3.32373 4.90133 4.90795 3.32373 3.2692 4.90795 4.85383 3.2692 3.19439 4.85383 4.77653 3.19439 3.1229 4.77653 4.70289 3.1229 3.06948 4.70289 4.64918 3.06948 3.03954 4.64918 4.62249 3.03954 3.03068 4.62249 4.61933 3.03068 3.03442 4.61933 4.62994 3.03442 3.03582 4.62994 4.6416 3.03582 3.02265 4.6416 4.62766 3.02265 2.97985 4.62766 4.60229 2.97985 2.89895 4.60229 4.52403 2.89895 2.81903 4.52403 4.32107 2.81903 2.63202 4.32107 4.53268 2.63202 2.63516 4.53268 4.98892 2.63516 3.05235 4.98892 5.44954 3.05235 3.53004 5.44954 5.91415 3.53004 4.01113 5.91415 6.31053 4.01113 4.4136 6.31053 6.73582 4.4136 4.80292 6.73582 7.09603 4.80292 5.14068 7.09603 7.52572 0 -0.543391 0 -0.527907 -0.543391 -1.26128 -0.527907 -1.34494 -1.26128 -1.35324 -1.34494 -0.931654 -1.35324 -1.13767 -0.931654 -0.676289 -1.13767 -0.935642 -0.676289 -0.439509 -0.935642 -0.721128 -0.439509 -0.182045 -0.721128 -0.468215 -0.182045 0.107339 -0.468215 -0.160761 0.107339 0.450332 -0.160761 0.220858 0.450332 0.874475 0.220858 0.693201 0.874475 1.40142 0.693201 1.25269 1.40142 2.03132 1.25269 1.87049 2.03132 2.73719 1.87049 2.50624 2.73719 3.47845 2.50624 3.12275 3.47845 4.21139 3.12275 3.68867 4.21139 4.89138 3.68867 4.175 4.89138 5.47148 4.175 4.551 5.47148 5.9121 4.551 4.79235 5.9121 6.19908 4.79235 4.90133 6.19908 6.3473 4.90133 4.90795 6.3473 6.39218 4.90795 4.85383 6.39218 6.37563 4.85383 4.77653 6.37563 6.33478 4.77653 4.70289 6.33478 6.29563 4.70289 4.64918 6.29563 6.27233 4.64918 4.62249 6.27233 6.27229 4.62249 4.61933 6.27229 6.29791 4.61933 4.62994 6.29791 6.33444 4.62994 4.6416 6.33444 6.37849 4.6416 4.62766 6.37849 6.42588 4.62766 4.60229 6.42588 6.33391 4.60229 4.52403 6.33391 6.29173 4.52403 4.32107 6.29173 6.66063 4.32107 4.53268 6.66063 7.14228 4.53268 4.98892 7.14228 7.6557 4.98892 5.44954 7.6557 8.07159 5.44954 5.91415 8.07159 8.46971 5.