# vtk DataFile Version 3.0
#This file was generated by the deal.II library on 2015/9/3 at 12: 0:59
ASCII
DATASET UNSTRUCTURED_GRID

POINTS 3200 double
0 0 0
0.05 0 0
0 0.05 0
0.05 0.05 0
0.05 0 0
0.1 0 0
0.05 0.05 0
0.1 0.05 0
0.1 0 0
0.15 0 0
0.1 0.05 0
0.15 0.05 0
0.15 0 0
0.2 0 0
0.15 0.05 0
0.2 0.05 0
0.2 0 0
0.25 0 0
0.2 0.05 0
0.25 0.05 0
0.25 0 0
0.3 0 0
0.25 0.05 0
0.3 0.05 0
0.3 0 0
0.35 0 0
0.3 0.05 0
0.35 0.05 0
0.35 0 0
0.4 0 0
0.35 0.05 0
0.4 0.05 0
0.4 0 0
0.45 0 0
0.4 0.05 0
0.45 0.05 0
0.45 0 0
0.5 0 0
0.45 0.05 0
0.5 0.05 0
0.5 0 0
0.55 0 0
0.5 0.05 0
0.55 0.05 0
0.55 0 0
0.6 0 0
0.55 0.05 0
0.6 0.05 0
0.6 0 0
0.65 0 0
0.6 0.05 0
0.65 0.05 0
0.65 0 0
0.7 0 0
0.65 0.05 0
0.7 0.05 0
0.7 0 0
0.75 0 0
0.7 0.05 0
0.75 0.05 0
0.75 0 0
0.8 0 0
0.75 0.05 0
0.8 0.05 0
0.8 0 0
0.85 0 0
0.8 0.05 0
0.85 0.05 0
0.85 0 0
0.9 0 0
0.85 0.05 0
0.9 0.05 0
0.9 0 0
0.95 0 0
0.9 0.05 0
0.95 0.05 0
0.95 0 0
1 0 0
0.95 0.05 0
1 0.05 0
1 0 0
1.05 0 0
1 0.05 0
1.05 0.05 0
1.05 0 0
1.1 0 0
1.05 0.05 0
1.1 0.05 0
1.1 0 0
1.15 0 0
1.1 0.05 0
1.15 0.05 0
1.15 0 0
1.2 0 0
1.15 0.05 0
1.2 0.05 0
1.2 0 0
1.25 0 0
1.2 0.05 0
1.25 0.05 0
1.25 0 0
1.3 0 0
1.25 0.05 0
1.3 0.05 0
1.3 0 0
1.35 0 0
1.3 0.05 0
1.35 0.05 0
1.35 0 0
1.4 0 0
1.35 0.05 0
1.4 0.05 0
1.4 0 0
1.45 0 0
1.4 0.05 0
1.45 0.05 0
1.45 0 0
1.5 0 0
1.45 0.05 0
1.5 0.05 0
1.5 0 0
1.55 0 0
1.5 0.05 0
1.55 0.05 0
1.55 0 0
1.6 0 0
1.55 0.05 0
1.6 0.05 0
1.6 0 0
1.65 0 0
1.6 0.05 0
1.65 0.05 0
1.65 0 0
1.7 0 0
1.65 0.05 0
1.7 0.05 0
1.7 0 0
1.75 0 0
1.7 0.05 0
1.75 0.05 0
1.75 0 0
1.8 0 0
1.75 0.05 0
1.8 0.05 0
1.8 0 0
1.85 0 0
1.8 0.05 0
1.85 0.05 0
1.85 0 0
1.9 0 0
1.85 0.05 0
1.9 0.05 0
1.9 0 0
1.95 0 0
1.9 0.05 0
1.95 0.05 0
1.95 0 0
2 0 0
1.95 0.05 0
2 0.05 0
0 0.05 0
0.05 0.05 0
0 0.1 0
0.05 0.1 0
0.05 0.05 0
0.1 0.05 0
0.05 0.1 0
0.1 0.1 0
0.1 0.05 0
0.15 0.05 0
0.1 0.1 0
0.15 0.1 0
0.15 0.05 0
0.2 0.05 0
0.15 0.1 0
0.2 0.1 0
0.2 0.05 0
0.25 0.05 0
0.2 0.1 0
0.25 0.1 0
0.25 0.05 0
0.3 0.05 0
0.25 0.1 0
0.3 0.1 0
0.3 0.05 0
0.35 0.05 0
0.3 0.1 0
0.35 0.1 0
0.35 0.05 0
0.4 0.05 0
0.35 0.1 0
0.4 0.1 0
0.4 0.05 0
0.45 0.05 0
0.4 0.1 0
0.45 0.1 0
0.45 0.05 0
0.5 0.05 0
0.45 0.1 0
0.5 0.1 0
0.5 0.05 0
0.55 0.05 0
0.5 0.1 0
0.55 0.1 0
0.55 0.05 0
0.6 0.05 0
0.55 0.1 0
0.6 0.1 0
0.6 0.05 0
0.65 0.05 0
0.6 0.1 0
0.65 0.1 0
0.65 0.05 0
0.7 0.05 0
0.65 0.1 0
0.7 0.1 0
0.7 0.05 0
0.75 0.05 0
0.7 0.1 0
0.75 0.1 0
0.75 0.05 0
0.8 0.05 0
0.75 0.1 0
0.8 0.1 0
0.8 0.05 0
0.85 0.05 0
0.8 0.1 0
0.85 0.1 0
0.85 0.05 0
0.9 0.05 0
0.85 0.1 0
0.9 0.1 0
0.9 0.05 0
0.95 0.05 0
0.9 0.1 0
0.95 0.1 0
0.95 0.05 0
1 0.05 0
0.95 0.1 0
1 0.1 0
1 0.05 0
1.05 0.05 0
1 0.1 0
1.05 0.1 0
1.05 0.05 0
1.1 0.05 0
1.05 0.1 0
1.1 0.1 0
1.1 0.05 0
1.15 0.05 0
1.1 0.1 0
1.15 0.1 0
1.15 0.05 0
1.2 0.05 0
1.15 0.1 0
1.2 0.1 0
1.2 0.05 0
1.25 0.05 0
1.2 0.1 0
1.25 0.1 0
1.25 0.05 0
1.3 0.05 0
1.25 0.1 0
1.3 0.1 0
1.3 0.05 0
1.35 0.05 0
1.3 0.1 0
1.35 0.1 0
1.35 0.05 0
1.4 0.05 0
1.35 0.1 0
1.4 0.1 0
1.4 0.05 0
1.45 0.05 0
1.4 0.1 0
1.45 0.1 0
1.45 0.05 0
1.5 0.05 0
1.45 0.1 0
1.5 0.1 0
1.5 0.05 0
1.55 0.05 0
1.5 0.1 0
1.55 0.1 0
1.55 0.05 0
1.6 0.05 0
1.55 0.1 0
1.6 0.1 0
1.6 0.05 0
1.65 0.05 0
1.6 0.1 0
1.65 0.1 0
1.65 0.05 0
1.7 0.05 0
1.65 0.1 0
1.7 0.1 0
1.7 0.05 0
1.75 0.05 0
1.7 0.1 0
1.75 0.1 0
1.75 0.05 0
1.8 0.05 0
1.75 0.1 0
1.8 0.1 0
1.8 0.05 0
1.85 0.05 0
1.8 0.1 0
1.85 0.1 0
1.85 0.05 0
1.9 0.05 0
1.85 0.1 0
1.9 0.1 0
1.9 0.05 0
1.95 0.05 0
1.9 0.1 0
1.95 0.1 0
1.95 0.05 0
2 0.05 0
1.95 0.1 0
2 0.1 0
0 0.1 0
0.05 0.1 0
0 0.15 0
0.05 0.15 0
0.05 0.1 0
0.1 0.1 0
0.05 0.15 0
0.1 0.15 0
0.1 0.1 0
0.15 0.1 0
0.1 0.15 0
0.15 0.15 0
0.15 0.1 0
0.2 0.1 0
0.15 0.15 0
0.2 0.15 0
0.2 0.1 0
0.25 0.1 0
0.2 0.15 0
0.25 0.15 0
0.25 0.1 0
0.3 0.1 0
0.25 0.15 0
0.3 0.15 0
0.3 0.1 0
0.35 0.1 0
0.3 0.15 0
0.35 0.15 0
0.35 0.1 0
0.4 0.1 0
0.35 0.15 0
0.4 0.15 0
0.4 0.1 0
0.45 0.1 0
0.4 0.15 0
0.45 0.15 0
0.45 0.1 0
0.5 0.1 0
0.45 0.15 0
0.5 0.15 0
0.5 0.1 0
0.55 0.1 0
0.5 0.15 0
0.55 0.15 0
0.55 0.1 0
0.6 0.1 0
0.55 0.15 0
0.6 0.15 0
0.6 0.1 0
0.65 0.1 0
0.6 0.15 0
0.65 0.15 0
0.65 0.1 0
0.7 0.1 0
0.65 0.15 0
0.7 0.15 0
0.7 0.1 0
0.75 0.1 0
0.7 0.15 0
0.75 0.15 0
0.75 0.1 0
0.8 0.1 0
0.75 0.15 0
0.8 0.15 0
0.8 0.1 0
0.85 0.1 0
0.8 0.15 0
0.85 0.15 0
0.85 0.1 0
0.9 0.1 0
0.85 0.15 0
0.9 0.15 0
0.9 0.1 0
0.95 0.1 0
0.9 0.15 0
0.95 0.15 0
0.95 0.1 0
1 0.1 0
0.95 0.15 0
1 0.15 0
1 0.1 0
1.05 0.1 0
1 0.15 0
1.05 0.15 0
1.05 0.1 0
1.1 0.1 0
1.05 0.15 0
1.1 0.15 0
1.1 0.1 0
1.15 0.1 0
1.1 0.15 0
1.15 0.15 0
1.15 0.1 0
1.2 0.1 0
1.15 0.15 0
1.2 0.15 0
1.2 0.1 0
1.25 0.1 0
1.2 0.15 0
1.25 0.15 0
1.25 0.1 0
1.3 0.1 0
1.25 0.15 0
1.3 0.15 0
1.3 0.1 0
1.35 0.1 0
1.3 0.15 0
1.35 0.15 0
1.35 0.1 0
1.4 0.1 0
1.35 0.15 0
1.4 0.15 0
1.4 0.1 0
1.45 0.1 0
1.4 0.15 0
1.45 0.15 0
1.45 0.1 0
1.5 0.1 0
1.45 0.15 0
1.5 0.15 0
1.5 0.1 0
1.55 0.1 0
1.5 0.15 0
1.55 0.15 0
1.55 0.1 0
1.6 0.1 0
1.55 0.15 0
1.6 0.15 0
1.6 0.1 0
1.65 0.1 0
1.6 0.15 0
1.65 0.15 0
1.65 0.1 0
1.7 0.1 0
1.65 0.15 0
1.7 0.15 0
1.7 0.1 0
1.75 0.1 0
1.7 0.15 0
1.75 0.15 0
1.75 0.1 0
1.8 0.1 0
1.75 0.15 0
1.8 0.15 0
1.8 0.1 0
1.85 0.1 0
1.8 0.15 0
1.85 0.15 0
1.85 0.1 0
1.9 0.1 0
1.85 0.15 0
1.9 0.15 0
1.9 0.1 0
1.95 0.1 0
1.9 0.15 0
1.95 0.15 0
1.95 0.1 0
2 0.1 0
1.95 0.15 0
2 0.15 0
0 0.15 0
0.05 0.15 0
0 0.2 0
0.05 0.2 0
0.05 0.15 0
0.1 0.15 0
0.05 0.2 0
0.1 0.2 0
0.1 0.15 0
0.15 0.15 0
0.1 0.2 0
0.15 0.2 0
0.15 0.15 0
0.2 0.15 0
0.15 0.2 0
0.2 0.2 0
0.2 0.15 0
0.25 0.15 0
0.2 0.2 0
0.25 0.2 0
0.25 0.15 0
0.3 0.15 0
0.25 0.2 0
0.3 0.2 0
0.3 0.15 0
0.35 0.15 0
0.3 0.2 0
0.35 0.2 0
0.35 0.15 0
0.4 0.15 0
0.35 0.2 0
0.4 0.2 0
0.4 0.15 0
0.45 0.15 0
0.4 0.2 0
0.45 0.2 0
0.45 0.15 0
0.5 0.15 0
0.45 0.2 0
0.5 0.2 0
0.5 0.15 0
0.55 0.15 0
0.5 0.2 0
0.55 0.2 0
0.55 0.15 0
0.6 0.15 0
0.55 0.2 0
0.6 0.2 0
0.6 0.15 0
0.65 0.15 0
0.6 0.2 0
0.65 0.2 0
0.65 0.15 0
0.7 0.15 0
0.65 0.2 0
0.7 0.2 0
0.7 0.15 0
0.75 0.15 0
0.7 0.2 0
0.75 0.2 0
0.75 0.15 0
0.8 0.15 0
0.75 0.2 0
0.8 0.2 0
0.8 0.15 0
0.85 0.15 0
0.8 0.2 0
0.85 0.2 0
0.85 0.15 0
0.9 0.15 0
0.85 0.2 0
0.9 0.2 0
0.9 0.15 0
0.95 0.15 0
0.9 0.2 0
0.95 0.2 0
0.95 0.15 0
1 0.15 0
0.95 0.2 0
1 0.2 0
1 0.15 0
1.05 0.15 0
1 0.2 0
1.05 0.2 0
1.05 0.15 0
1.1 0.15 0
1.05 0.2 0
1.1 0.2 0
1.1 0.15 0
1.15 0.15 0
1.1 0.2 0
1.15 0.2 0
1.15 0.15 0
1.2 0.15 0
1.15 0.2 0
1.2 0.2 0
1.2 0.15 0
1.25 0.15 0
1.2 0.2 0
1.25 0.2 0
1.25 0.15 0
1.3 0.15 0
1.25 0.2 0
1.3 0.2 0
1.3 0.15 0
1.35 0.15 0
1.3 0.2 0
1.35 0.2 0
1.35 0.15 0
1.4 0.15 0
1.35 0.2 0
1.4 0.2 0
1.4 0.15 0
1.45 0.15 0
1.4 0.2 0
1.45 0.2 0
1.45 0.15 0
1.5 0.15 0
1.45 0.2 0
1.5 0.2 0
1.5 0.15 0
1.55 0.15 0
1.5 0.2 0
1.55 0.2 0
1.55 0.15 0
1.6 0.15 0
1.55 0.2 0
1.6 0.2 0
1.6 0.15 0
1.65 0.15 0
1.6 0.2 0
1.65 0.2 0
1.65 0.15 0
1.7 0.15 0
1.65 0.2 0
1.7 0.2 0
1.7 0.15 0
1.75 0.15 0
1.7 0.2 0
1.75 0.2 0
1.75 0.15 0
1.8 0.15 0
1.75 0.2 0
1.8 0.2 0
1.8 0.15 0
1.85 0.15 0
1.8 0.2 0
1.85 0.2 0
1.85 0.15 0
1.9 0.15 0
1.85 0.2 0
1.9 0.2 0
1.9 0.15 0
1.95 0.15 0
1.9 0.2 0
1.95 0.2 0
1.95 0.15 0
2 0.15 0
1.95 0.2 0
2 0.2 0
0 0.2 0
0.05 0.2 0
0 0.25 0
0.05 0.25 0
0.05 0.2 0
0.1 0.2 0
0.05 0.25 0
0.1 0.25 0
0.1 0.2 0
0.15 0.2 0
0.1 0.25 0
0.15 0.25 0
0.15 0.2 0
0.2 0.2 0
0.15 0.25 0
0.2 0.25 0
0.2 0.2 0
0.25 0.2 0
0.2 0.25 0
0.25 0.25 0
0.25 0.2 0
0.3 0.2 0
0.25 0.25 0
0.3 0.25 0
0.3 0.2 0
0.35 0.2 0
0.3 0.25 0
0.35 0.25 0
0.35 0.2 0
0.4 0.2 0
0.35 0.25 0
0.4 0.25 0
0.4 0.2 0
0.45 0.2 0
0.4 0.25 0
0.45 0.25 0
0.45 0.2 0
0.5 0.2 0
0.45 0.25 0
0.5 0.25 0
0.5 0.2 0
0.55 0.2 0
0.5 0.25 0
0.55 0.25 0
0.55 0.2 0
0.6 0.2 0
0.55 0.25 0
0.6 0.25 0
0.6 0.2 0
0.65 0.2 0
0.6 0.25 0
0.65 0.25 0
0.65 0.2 0
0.7 0.2 0
0.65 0.25 0
0.7 0.25 0
0.7 0.2 0
0.75 0.2 0
0.7 0.25 0
0.75 0.25 0
0.75 0.2 0
0.8 0.2 0
0.75 0.25 0
0.8 0.25 0
0.8 0.2 0
0.85 0.2 0
0.8 0.25 0
0.85 0.25 0
0.85 0.2 0
0.9 0.2 0
0.85 0.25 0
0.9 0.25 0
0.9 0.2 0
0.95 0.2 0
0.9 0.25 0
0.95 0.25 0
0.95 0.2 0
1 0.2 0
0.95 0.25 0
1 0.25 0
1 0.2 0
1.05 0.2 0
1 0.25 0
1.05 0.25 0
1.05 0.2 0
1.1 0.2 0
1.05 0.25 0
1.1 0.25 0
1.1 0.2 0
1.15 0.2 0
1.1 0.25 0
1.15 0.25 0
1.15 0.2 0
1.2 0.2 0
1.15 0.25 0
1.2 0.25 0
1.2 0.2 0
1.25 0.2 0
1.2 0.25 0
1.25 0.25 0
1.25 0.2 0
1.3 0.2 0
1.25 0.25 0
1.3 0.25 0
1.3 0.2 0
1.35 0.2 0
1.3 0.25 0
1.35 0.25 0
1.35 0.2 0
1.4 0.2 0
1.35 0.25 0
1.4 0.25 0
1.4 0.2 0
1.45 0.2 0
1.4 0.25 0
1.45 0.25 0
1.45 0.2 0
1.5 0.2 0
1.45 0.25 0
1.5 0.25 0
1.5 0.2 0
1.55 0.2 0
1.5 0.25 0
1.55 0.25 0
1.55 0.2 0
1.6 0.2 0
1.55 0.25 0
1.6 0.25 0
1.6 0.2 0
1.65 0.2 0
1.6 0.25 0
1.65 0.25 0
1.65 0.2 0
1.7 0.2 0
1.65 0.25 0
1.7 0.25 0
1.7 0.2 0
1.75 0.2 0
1.7 0.25 0
1.75 0.25 0
1.75 0.2 0
1.8 0.2 0
1.75 0.25 0
1.8 0.25 0
1.8 0.2 0
1.85 0.2 0
1.8 0.25 0
1.85 0.25 0
1.85 0.2 0
1.9 0.2 0
1.85 0.25 0
1.9 0.25 0
1.9 0.2 0
1.95 0.2 0
1.9 0.25 0
1.95 0.25 0
1.95 0.2 0
2 0.2 0
1.95 0.25 0
2 0.25 0
0 0.25 0
0.05 0.25 0
0 0.3 0
0.05 0.3 0
0.05 0.25 0
0.1 0.25 0
0.05 0.3 0
0.1 0.3 0
0.1 0.25 0
0.15 0.25 0
0.1 0.3 0
0.15 0.3 0
0.15 0.25 0
0.2 0.25 0
0.15 0.3 0
0.2 0.3 0
0.2 0.25 0
0.25 0.25 0
0.2 0.3 0
0.25 0.3 0
0.25 0.25 0
0.3 0.25 0
0.25 0.3 0
0.3 0.3 0
0.3 0.25 0
0.35 0.25 0
0.3 0.3 0
0.35 0.3 0
0.35 0.25 0
0.4 0.25 0
0.35 0.3 0
0.4 0.3 0
0.4 0.25 0
0.45 0.25 0
0.4 0.3 0
0.45 0.3 0
0.45 0.25 0
0.5 0.25 0
0.45 0.3 0
0.5 0.3 0
0.5 0.25 0
0.55 0.25 0
0.5 0.3 0
0.55 0.3 0
0.55 0.25 0
0.6 0.25 0
0.55 0.3 0
0.6 0.3 0
0.6 0.25 0
0.65 0.25 0
0.6 0.3 0
0.65 0.3 0
0.65 0.25 0
0.7 0.25 0
0.65 0.3 0
0.7 0.3 0
0.7 0.25 0
0.75 0.25 0
0.7 0.3 0
0.75 0.3 0
0.75 0.25 0
0.8 0.25 0
0.75 0.3 0
0.8 0.3 0
0.8 0.25 0
0.85 0.25 0
0.8 0.3 0
0.85 0.3 0
0.85 0.25 0
0.9 0.25 0
0.85 0.3 0
0.9 0.3 0
0.9 0.25 0
0.95 0.25 0
0.9 0.3 0
0.95 0.3 0
0.95 0.25 0
1 0.25 0
0.95 0.3 0
1 0.3 0
1 0.25 0
1.05 0.25 0
1 0.3 0
1.05 0.3 0
1.05 0.25 0
1.1 0.25 0
1.05 0.3 0
1.1 0.3 0
1.1 0.25 0
1.15 0.25 0
1.1 0.3 0
1.15 0.3 0
1.15 0.25 0
1.2 0.25 0
1.15 0.3 0
1.2 0.3 0
1.2 0.25 0
1.25 0.25 0
1.2 0.3 0
1.25 0.3 0
1.25 0.25 0
1.3 0.25 0
1.25 0.3 0
1.3 0.3 0
1.3 0.25 0
1.35 0.25 0
1.3 0.3 0
1.35 0.3 0
1.35 0.25 0
1.4 0.25 0
1.35 0.3 0
1.4 0.3 0
1.4 0.25 0
1.45 0.25 0
1.4 0.3 0
1.45 0.3 0
1.45 0.25 0
1.5 0.25 0
[...]
POINT_DATA 3200
SCALARS x_displacement double 1
LOOKUP_TABLE default
0 -2.44864 0 -1.41132 -2.44864 -4.48563 -1.41132 -2.93171 -4.48563 -6.32326 -2.93171 -4.33305 -6.32326 -8.00913 -4.33305 -5.63769 -8.00913 -9.56321 -5.63769 -6.86854 -9.56321 -11.0056 -6.86854 -8.04334 -11.0056 -12.3571 -8.04334 -9.174 -12.3571 -13.6402 -9.174 -10.2678 -13.6402 -14.8777 -10.2678 -11.3332 -14.8777 -16.0912 -11.3332 -12.3907 -16.0912 -17.2975 -12.3907 -13.4584 -17.2975 -18.5064 -13.4584 -14.5389 -18.5064 -19.721 -14.5389 -15.6306 -19.721 -20.9506 -15.6306 -16.7387 -20.9506 -22.2325 -16.7387 -17.886 -22.2325 -23.5881 -17.886 -19.0884 -23.5881 -25.0159 -19.0884 -20.3489 -25.0159 -26.5088 -20.3489 -21.6673 -26.5088 -28.0582 -21.6673 -23.0436 -28.0582 -29.6551 -23.0436 -24.4754 -29.6551 -31.292 -24.4754 -25.9563 -31.292 -32.9489 -25.9563 -27.4734 -32.9489 -34.5715 -27.4734 -29.0098 -34.5715 -36.1164 -29.0098 -30.5224 -36.1164 -37.5652 -30.5224 -31.974 -37.5652 -38.908 -31.974 -33.3469 -38.908 -40.1558 -33.3469 -34.6437 -40.1558 -41.3213 -34.6437 -35.8676 -41.3213 -42.4129 -35.8676 -37.0168 -42.4129 -43.4327 -37.0168 -38.0853 -43.4327 -44.3704 -38.0853 -39.0612 -44.3704 -45.2105 -39.0612 -39.9358 -45.2105 -45.9743 -39.9358 -40.7358 -45.9743 -46.677 -40.7358 -41.4996 -46.677 -47.3631 -41.4996 -42.2757 -47.3631 -48.0589 -42.2757 -43.0735 -48.0589 -48.8432 -43.0735 -43.8571 -48.8432 -49.8047 -43.8571 -44.5288 -49.8047 -50.2681 -44.5288 -44.9563 -50.2681 -50.3159 -44.9563 -45.0375 0 -1.41132 0 -0.802242 -1.41132 -2.93171 -0.802242 -1.66938 -2.93171 -4.33305 -1.66938 -2.56551 -4.33305 -5.63769 -2.56551 -3.44521 -5.63769 -6.86854 -3.44521 -4.32006 -6.86854 -8.04334 -4.32006 -5.20376 -8.04334 -9.174 -5.20376 -6.09589 -9.174 -10.2678 -6.09589 -6.99088 -10.2678 -11.3332 -6.99088 -7.88662 -11.3332 -12.3907 -7.88662 -8.79436 -12.3907 -13.4584 -8.79436 -9.72594 -13.4584 -14.5389 -9.72594 -10.6816 -14.5389 -15.6306 -10.6816 -11.6601 -15.6306 -16.7387 -11.6601 -12.6641 -16.7387 -17.886 -12.6641 -13.6994 -17.886 -19.0884 -13.6994 -14.7746 -19.0884 -20.3489 -14.7746 -15.8989 -20.3489 -21.6673 -15.8989 -17.0776 -21.6673 -23.0436 -17.0776 -18.3173 -23.0436 -24.4754 -18.3173 -19.6271 -24.4754 -25.9563 -19.6271 -21.0146 -25.9563 -27.4734 -21.0146 -22.4727 -27.4734 -29.0098 -22.4727 -23.9938 -29.0098 -30.5224 -23.9938 -25.5321 -30.5224 -31.974 -25.5321 -27.0406 -31.974 -33.3469 -27.0406 -28.4939 -33.3469 -34.6437 -28.4939 -29.8775 -34.6437 -35.8676 -29.8775 -31.1781 -35.8676 -37.0168 -31.1781 -32.3831 -37.0168 -38.0853 -32.3831 -33.484 -38.0853 -39.0612 -33.484 -34.4832 -39.0612 -39.9358 -34.4832 -35.395 -39.9358 -40.7358 -35.395 -36.2477 -40.7358 -41.4996 -36.2477 -37.0787 -41.4996 -42.2757 -37.0787 -37.8908 -42.2757 -43.0735 -37.8908 -38.6613 -43.0735 -43.8571 -38.6613 -39.3742 -43.8571 -44.5288 -39.3742 -39.9908 -44.5288 -44.9563 -39.9908 -40.3989 -44.9563 -45.0375 -40.3989 -40.3991 0 -0.802242 0 -0.219155 -0.802242 -1.66938 -0.219155 -0.523933 -1.66938 -2.56551 -0.523933 -0.922576 -2.56551 -3.44521 -0.922576 -1.39702 -3.44521 -4.32006 -1.39702 -1.93826 -4.32006 -5.20376 -1.93826 -2.54589 -5.20376 -6.09589 -2.54589 -3.21043 -6.09589 -6.99088 -3.21043 -3.92159 -6.99088 -7.88662 -3.92159 -4.67289 -7.88662 -8.79436 -4.67289 -5.46019 -8.79436 -9.72594 -5.46019 -6.28026 -9.72594 -10.6816 -6.28026 -7.13148 -10.6816 -11.6601 -7.13148 -8.01441 -11.6601 -12.6641 -8.01441 -8.92901 -12.6641 -13.6994 -8.92901 -9.87723 -13.6994 -14.7746 -9.87723 -10.8658 -14.7746 -15.8989 -10.8658 -11.9006 -15.8989 -17.0776 -11.9006 -13.0062 -17.0776 -18.3173 -13.0062 -14.2083 -18.3173 -19.6271 -14.2083 -15.5158 -19.6271 -21.0146 -15.5158 -16.927 -21.0146 -22.4727 -16.927 -18.4118 -22.4727 -23.9938 -18.4118 -19.9257 -23.9938 -25.5321 -19.9257 -21.4376 -25.5321 -27.0406 -21.4376 -22.9211 -27.0406 -28.4939 -22.9211 -24.3466 -28.4939 -29.8775 -24.3466 -25.6904 -29.8775 -31.1781 -25.6904 -26.9395 -31.1781 -32.3831 -26.9395 -28.0888 -32.3831 -33.484 -28.0888 -29.1383 -33.484 -34.4832 -29.1383 -30.099 -34.4832 -35.395 -30.099 -31.0052 -35.395 -36.2477 -31.0052 -31.8916 -36.2477 -37.0787 -31.8916 -32.7524 -37.0787 -37.8908 -32.7524 -33.5545 -37.8908 -38.6613 -33.5545 -34.2919 -38.6613 -39.3742 -34.2919 -34.9479 -39.3742 -39.9908 -34.9479 -35.4971 -39.9908 -40.3989 -35.4971 -35.8885 -40.3989 -40.3991 -35.8885 -36.02 0 -0.219155 0 0.301196 -0.219155 -0.523933 0.301196 0.480571 -0.523933 -0.922576 0.480571 0.499494 -0.922576 -1.39702 0.499494 0.371655 -1.39702 -1.93826 0.371655 0.114379 -1.93826 -2.54589 0.114379 -0.255704 -2.54589 -3.21043 -0.255704 -0.723223 -3.21043 -3.92159 -0.723223 -1.27611 -3.92159 -4.67289 -1.27611 -1.9056 -4.67289 -5.46019 -1.9056 -2.60423 -5.46019 -6.28026 -2.60423 -3.35726 -6.28026 -7.13148 -3.35726 -4.14916 -7.13148 -8.01441 -4.14916 -4.97114 -8.01441 -8.92901 -4.97114 -5.83323 -8.92901 -9.87723 -5.83323 -6.75065 -9.87723 -10.8658 -6.75065 -7.72992 -10.8658 -11.9006 -7.72992 -8.78269 -11.9006 -13.0062 -8.78269 -9.9569 -13.0062 -14.2083 -9.9569 -11.2501 -14.2083 -15.5158 -11.2501 -12.5987 -15.5158 -16.927 -12.5987 -13.9556 -16.927 -18.4118 -13.9556 -15.3022 -18.4118 -19.9257 -15.3022 -16.6318 -19.9257 -21.4376 -16.6318 -17.9392 -21.4376 -22.9211 -17.9392 -19.2134 -22.9211 -24.3466 -19.2134 -20.4396 -24.3466 -25.6904 -20.4396 -21.6061 -25.6904 -26.9395 -21.6061 -22.7088 -26.9395 -28.0888 -22.7088 -23.7491 -28.0888 -29.1383 -23.7491 -24.7282 -29.1383 -30.099 -24.7282 -25.6471 -30.099 -31.0052 -25.6471 -26.5249 -31.0052 -31.8916 -26.5249 -27.4018 -31.8916 -32.7524 -27.4018 -28.2645 -32.7524 -33.5545 -28.2645 -29.0868 -33.5545 -34.2919 -29.0868 -29.8127 -34.2919 -34.9479 -29.8127 -30.4148 -34.9479 -35.4971 -30.4148 -30.896 -35.4971 -35.8885 -30.896 -31.2033 -35.8885 -36.02 -31.2033 -31.2375 0 0.301196 0 0.670537 0.301196 0.480571 0.670537 1.20998 0.480571 0.499494 1.20998 1.55452 0.499494 0.371655 1.55452 1.70011 0.371655 0.114379 1.70011 1.66263 0.114379 -0.255704 1.66263 1.46409 -0.255704 -0.723223 1.46409 1.12972 -0.723223 -1.27611 1.12972 0.683967 -1.27611 -1.9056 0.683967 0.136944 -1.9056 -2.60423 0.136944 -0.503416 -2.60423 -3.35726 -0.503416 -1.21547 -3.35726 -4.14916 -1.21547 -1.98183 -4.14916 -4.97114 -1.98183 -2.8035 -4.97114 -5.83323 -2.8035 -3.70536 -5.83323 -6.75065 -3.70536 -4.70966 -6.75065 -7.72992 -4.70966 -5.82326 -7.72992 -8.78269 -5.82326 -7.01759 -8.78269 -9.9569 -7.01759 -8.25003 -9.9569 -11.2501 -8.25003 -9.45193 -11.2501 -12.5987 -9.45193 -10.5857 -12.5987 -13.9556 -10.5857 -11.6594 -13.9556 -15.3022 -11.6594 -12.6913 -15.3022 -16.6318 -12.6913 -13.6966 -16.6318 -17.9392 -13.6966 -14.6831 -17.9392 -19.2134 -14.6831 -15.6528 -19.2134 -20.4396 -15.6528 -16.6047 -20.4396 -21.6061 -16.6047 -17.5382 -21.6061 -22.7088 -17.5382 -18.4547 -22.7088 -23.7491 -18.4547 -19.3564 -23.7491 -24.7282 -19.3564 -20.242 -24.7282 -25.6471 -20.242 -21.1025 -25.6471 -26.5249 -21.1025 -21.9363 -26.5249 -27.4018 -21.9363 -22.7654 -27.4018 -28.2645 -22.7654 -23.5985 -28.2645 -29.0868 -23.5985 -24.4014 -29.0868 -29.8127 -24.4014 -25.1188 -29.8127 -30.4148 -25.1188 -25.7143 -30.4148 -30.896 -25.7143 -26.1555 -30.896 -31.2033 -26.1555 -26.3627 -31.2033 -31.2375 -26.3627 -26.2798 0 0.670537 0 1.16056 0.670537 1.20998 1.16056 1.98394 1.20998 1.55452 1.98394 2.5206 1.55452 1.70011 2.5206 2.81093 1.70011 1.66263 2.81093 2.87853 1.66263 1.46409 2.87853 2.74777 1.46409 1.12972 2.74777 2.44375 1.12972 0.683967 2.44375 1.98735 0.683967 0.136944 1.98735 1.39004 0.136944 -0.503416 1.39004 0.668311 -0.503416 -1.21547 0.668311 -0.167999 -1.21547 -1.98183 -0.167999 -1.10092 -1.98183 -2.8035 -1.10092 -2.10468 -2.8035 -3.70536 -2.10468 -3.16381 -3.70536 -4.70966 -3.16381 -4.25448 -4.70966 -5.82326 -4.25448 -5.32417 -5.82326 -7.01759 -5.32417 -6.31783 -7.01759 -8.25003 -6.31783 -7.22875 -8.25003 -9.45193 -7.22875 -8.06362 -9.45193 -10.5857 -8.06362 -8.83474 -10.5857 -11.6594 -8.83474 -9.55708 -11.6594 -12.6913 -9.55708 -10.2473 -12.6913 -13.6966 -10.2473 -10.921 -13.6966 -14.6831 -10.921 -11.59 -14.6831 -15.6528 -11.59 -12.2625 -15.6528 -16.6047 -12.2625 -12.9439 -16.6047 -17.5382 -12.9439 -13.6375 -17.5382 -18.4547 -13.6375 -14.3456 -18.4547 -19.3564 -14.3456 -15.0685 -19.3564 -20.242 -15.0685 -15.8025 -20.242 -21.1025 -15.8025 -16.5393 -21.1025 -21.9363 -16.5393 -17.2682 -21.9363 -22.7654 -17.2682 -17.9962 -22.7654 -23.5985 -17.9962 -18.7457 -23.5985 -24.4014 -18.7457 -19.4974 -24.4014 -25.1188 -19.4974 -20.2108 -25.1188 -25.7143 -20.2108 -20.8119 -25.7143 -26.1555 -20.8119 -21.2641 -26.1555 -26.3627 -21.2641 -21.4747 -26.3627 -26.2798 -21.4747 -21.3383 0 1.16056 0 1.72533 1.16056 1.98394 1.72533 2.72264 1.98394 2.5206 2.72264 3.26672 2.5206 2.81093 3.26672 3.48668 2.81093 2.87853 3.48668 3.43124 2.87853 2.74777 3.43124 3.10901 2.74777 2.44375 3.10901 2.54928 2.44375 1.98735 2.54928 1.81555 1.98735 1.39004 1.81555 0.963594 1.39004 0.668311 0.963594 0.0407853 0.668311 -0.167999 0.0407853 -0.899127 -0.167999 -1.10092 -0.899127 -1.79898 -1.10092 -2.10468 -1.79898 -2.64164 -2.10468 -3.16381 -2.64164 -3.433 -3.16381 -4.25448 -3.433 -4.17051 -4.25448 -5.32417 -4.17051 -4.84684 -5.32417 -6.31783 -4.84684 -5.45748 -6.31783 -7.22875 -5.45748 -6.00547 -7.22875 -8.06362 -6.00547 -6.50267 -8.06362 -8.83474 -6.50267 -6.96179 -8.83474 -9.55708 -6.96179 -7.39401 -9.55708 -10.2473 -7.39401 -7.81075 -10.2473 -10.921 -7.81075 -8.22405 -10.921 -11.59 -8.22405 -8.64543 -11.59 -12.2625 -8.64543 -9.08436 -12.2625 -12.9439 -9.08436 -9.54692 -12.9439 -13.6375 -9.54692 -10.035 -13.6375 -14.3456 -10.035 -10.546 -14.3456 -15.0685 -10.546 -11.0735 -15.0685 -15.8025 -11.0735 -11.6089 -15.8025 -16.5393 -11.6089 -12.1435 -16.5393 -17.2682 -12.1435 -12.6732 -17.2682 -17.9962 -12.6732 -13.2068 -17.9962 -18.7457 -13.2068 -13.7663 -18.7457 -19.4974 -13.7663 -14.3826 -19.4974 -20.2108 -14.3826 -15.0533 -20.2108 -20.8119 -15.0533 -15.7011 -20.8119 -21.2641 -15.7011 -16.2389 -21.2641 -21.4747 -16.2389 -16.5786 -21.4747 -21.3383 -16.5786 -16.4992 0 1.72533 0 1.9357 1.72533 2.72264 1.9357 2.73954 2.72264 3.26672 2.73954 2.89585 3.26672 3.48668 2.89585 2.65551 3.48668 3.43124 2.65551 2.17131 3.43124 3.10901 2.17131 1.56845 3.10901 2.54928 1.56845 0.94723 2.54928 1.81555 0.94723 0.332141 1.81555 0.963594 0.332141 -0.279236 0.963594 0.0407853 -0.279236 -0.879145 0.0407853 -0.899127 -0.879145 -1.45367 -0.899127 -1.79898 -1.45367 -1.99125 -1.79898 -2.64164 -1.99125 -2.48451 -2.64164 -3.433 -2.48451 -2.93126 -3.433 -4.17051 -2.93126 -3.33458 -4.17051 -4.84684 -3.33458 -3.69965 -4.84684 -5.45748 -3.69965 -4.02936 -5.45748 -6.00547 -4.02936 -4.32554 -6.00547 -6.50267 -4.32554 -4.59303 -6.50267 -6.96179 -4.59303 -4.83924 -6.96179 -7.39401 -4.83924 -5.07215 -7.39401 -7.81075 -5.07215 -5.30032 -7.81075 -8.22405 -5.30032 -5.5332 -8.22405 -8.64543 -5.5332 -5.7806 -8.64543 -9.08436 -5.7806 -6.051 -9.08436 -9.54692 -6.051 -6.34934 -9.54692 -10.035 -6.34934 -6.67495 -10.035 -10.546 -6.67495 -7.02081 -10.546 -11.0735 -7.02081 -7.37473 -11.0735 -11.6089 -7.37473 -7.72242 -11.6089 -12.1435 -7.72242 -8.05172 -12.1435 -12.6732 -8.05172 -8.35693 -12.6732 -13.2068 -8.35693 -8.64283 -13.2068 -13.7663 -8.64283 -8.93186 -13.7663 -14.3826 -8.93186 -9.26651 -14.3826 -15.0533 -9.26651 -9.70261 -15.0533 -15.7011 -9.70261 -10.2867 -15.7011 -16.2389 -10.2867 -10.9759 -16.2389 -16.5786 -10.9759 -11.3517 -16.5786 -16.4992 -11.3517 -11.3465 0 1.9357 0 0.922325 1.9357 2.73954 0.922325 1.29058 2.73954 2.89585 1.29058 1.23231 2.89585 2.65551 1.23231 0.984864 2.65551 2.17131 0.984864 0.680993 2.17131 1.56845 0.680993 0.372865 1.56845 0.94723 0.372865 0.0759473 0.94723 0.332141 0.0759473 -0.207416 0.332141 -0.279236 -0.207416 -0.479478 -0.279236 -0.879145 -0.479478 -0.741838 -0.879145 -1.45367 -0.741838 -0.994176 -1.45367 -1.99125 -0.994176 -1.23373 -1.99125 -2.48451 -1.23373 -1.45547 -2.48451 -2.93126 -1.45547 -1.65567 -2.93126 -3.33458 -1.65567 -1.83444 -3.33458 -3.69965 -1.83444 -1.99414 -3.69965 -4.02936 -1.99414 -2.13712 -4.02936 -4.32554 -2.13712 -2.26516 -4.32554 -4.59303 -2.26516 -2.38045 -4.59303 -4.83924 -2.38045 -2.48623 -4.83924 -5.07215 -2.48623 -2.58665 -5.07215 -5.30032 -2.58665 -2.68662 -5.30032 -5.5332 -2.68662 -2.7918 -5.5332 -5.7806 -2.7918 -2.90822 -5.7806 -6.051 -2.90822 -3.0411 -6.051 -6.34934 -3.0411 -3.19323 -6.34934 -6.67495 -3.19323 -3.3633 -6.67495 -7.02081 -3.3633 -3.54539 -7.02081 -7.37473 -3.54539 -3.73011 -7.37473 -7.72242 -3.73011 -3.90699 -7.72242 -8.05172 -3.90699 -4.06711 -8.05172 -8.35693 -4.06711 -4.20517 -8.35693 -8.64283 -4.20517 -4.32171 -8.64283 -8.93186 -4.32171 -4.42371 -8.93186 -9.26651 -4.42371 -4.51949 -9.26651 -9.70261 -4.51949 -4.62283 -9.70261 -10.2867 -4.62283 -4.81317 -10.2867 -10.9759 -4.81317 -5.24854 -10.9759 -11.3517 -5.24854 -5.90996 -11.3517 -11.3465 -5.90996 -5.86894 0 0.922325 0 -7.01508e-12 0.922325 1.29058 -7.01508e-12 -8.60337e-12 1.29058 1.23231 -8.60337e-12 -8.42041e-12 1.23231 0.984864 -8.42041e-12 -1.87866e-12 0.984864 0.680993 -1.87866e-12 -8.33059e-13 0.680993 0.372865 -8.33059e-13 8.95535e-13 0.372865 0.0759473 8.95535e-13 3.69302e-12 0.0759473 -0.207416 3.69302e-12 5.74429e-12 -0.207416 -0.479478 5.74429e-12 8.71764e-12 -0.479478 -0.741838 8.71764e-12 1.12566e-11 -0.741838 -0.994176 1.12566e-11 9.9685e-12 -0.994176 -1.23373 9.9685e-12 7.35525e-12 -1.23373 -1.45547 7.35525e-12 5.71902e-12 -1.45547 -1.65567 5.71902e-12 1.41224e-12 -1.65567 -1.83444 1.41224e-12 -2.02574e-12 -1.83444 -1.99414 -2.02574e-12 -4.00221e-12 -1.99414 -2.13712 -4.00221e-12 -7.70581e-12 -2.13712 -2.26516 -7.70581e-12 -8.67741e-12 -2.26516 -2.38045 -8.67741e-12 -8.62795e-12 -2.38045 -2.48623 -8.62795e-12 -1.01043e-11 -2.48623 -2.58665 -1.01043e-11 -9.04692e-12 -2.58665 -2.68662 -9.04692e-12 -9.97062e-12 -2.68662 -2.7918 -9.97062e-12 -1.31526e-11 -2.7918 -2.90822 -1.31526e-11 -1.38653e-11 -2.90822 -3.0411 -1.38653e-11 -1.16972e-11 -3.0411 -3.19323 -1.16972e-11 -1.26265e-11 -3.19323 -3.3633 -1.26265e-11 -1.47697e-11 -3.3633 -3.54539 -1.47697e-11 -1.2576e-11 -3.54539 -3.73011 -1.2576e-11 -1.09395e-11 -3.73011 -3.90699 -1.09395e-11 -1.02596e-11 -3.90699 -4.06711 -1.02596e-11 -8.58197e-12 -4.06711 -4.20517 -8.58197e-12 -1.01967e-11 -4.20517 -4.32171 -1.01967e-11 -1.30171e-11 -4.32171 -4.42371 -1.30171e-11 -1.28603e-11 -4.42371 -4.51949 -1.28603e-11 -1.15121e-11 -4.51949 -4.62283 -1.15121e-11 -1.25547e-11 -4.62283 -4.81317 -1.25547e-11 -1.31719e-11 -4.81317 -5.24854 -1.31719e-11 -1.67263e-11 -5.24854 -5.90996 -1.67263e-11 -1.64573e-11 -5.90996 -5.86894 -1.64573e-11 -1.68762e-11 0 -7.01508e-12 0 -0.922325 -7.01508e-12 -8.60337e-12 -0.922325 -1.29058 -8.60337e-12 -8.42041e-12 -1.29058 -1.23231 -8.42041e-12 -1.87866e-12 -1.23231 -0.984864 -1.87866e-12 -8.33059e-13 -0.984864 -0.680993 -8.33059e-13 8.95535e-13 -0.680993 -0.372865 8.95535e-13 3.69302e-12 -0.372865 -0.0759473 3.69302e-12 5.74429e-12 -0.0759473 0.207416 5.74429e-12 8.71764e-12 0.207416 0.479478 8.71764e-12 1.12566e-11 0.479478 0.741838 1.12566e-11 9.9685e-12 0.741838 0.994176 9.9685e-12 7.35525e-12 0.994176 1.23373 7.35525e-12 5.71902e-12 1.23373 1.45547 5.71902e-12 1.41224e-12 1.45547 1.65567 1.41224e-12 -2.02574e-12 1.65567 1.83444 -2.02574e-12 -4.00221e-12 1.83444 1.99414 -4.00221e-12 -7.70581e-12 1.99414 2.13712 -7.70581e-12 -8.67741e-12 2.13712 2.26516 -8.67741e-12 -8.62795e-12 2.26516 2.38045 -8.62795e-12 -1.01043e-11 2.38045 2.48623 -1.01043e-11 -9.04692e-12 2.48623 2.58665 -9.04692e-12 -9.97062e-12 2.58665 2.68662 -9.97062e-12 -1.31526e-11 2.68662 2.7918 -1.31526e-11 -1.38653e-11 2.7918 2.90822 -1.38653e-11 -1.16972e-11 2.90822 3.0411 -1.16972e-11 -1.26265e-11 3.0411 3.19323 -1.26265e-11 -1.47697e-11 3.19323 3.3633 -1.47697e-11 -1.2576e-11 3.3633 3.54539 -1.2576e-11 -1.09395e-11 3.54539 3.73011 -1.09395e-11 -1.02596e-11 3.73011 3.90699 -1.02596e-11 -8.58197e-12 3.90699 4.06711 -8.58197e-12 -1.01967e-11 4.06711 4.20517 -1.01967e-11 -1.30171e-11 4.20517 4.32171 -1.30171e-11 -1.28603e-11 4.32171 4.42371 -1.28603e-11 -1.15121e-11 4.42371 4.51949 -1.15121e-11 -1.25547e-11 4.51949 4.62283 -1.25547e-11 -1.31719e-11 4.62283 4.81317 -1.31719e-11 -1.67263e-11 4.81317 5.24854 -1.67263e-11 -1.64573e-11 5.24854 5.90996 -1.64573e-11 -1.68762e-11 5.90996 5.86894 0 -0.922325 0 -1.9357 -0.922325 -1.29058 -1.9357 -2.73954 -1.29058 -1.23231 -2.73954 -2.89585 -1.23231 -0.984864 -2.89585 -2.65551 -0.984864 -0.680993 -2.65551 -2.17131 -0.680993 -0.372865 -2.17131 -1.56845 -0.372865 -0.0759473 -1.56845 -0.94723 -0.0759473 0.207416 -0.94723 -0.332141 0.207416 0.479478 -0.332141 0.279236 0.479478 0.741838 0.279236 0.879145 0.741838 0.994176 0.879145 1.45367 0.994176 1.23373 1.45367 1.99125 1.23373 1.45547 1.99125 2.48451 1.45547 1.65567 2.48451 2.93126 1.65567 1.83444 2.93126 3.33458 1.83444 1.99414 3.33458 3.69965 1.99414 2.13712 3.69965 4.02936 2.13712 2.26516 4.02936 4.32554 2.26516 2.38045 4.32554 4.59303 2.38045 2.48623 4.59303 4.83924 2.48623 2.58665 4.83924 5.07215 2.58665 2.68662 5.07215 5.30032 2.68662 2.7918 5.30032 5.5332 2.7918 2.90822 5.5332 5.7806 2.90822 3.0411 5.7806 6.051 3.0411 3.19323 6.051 6.34934 3.19323 3.3633 6.34934 6.67495 3.3633 3.54539 6.67495 7.02081 3.54539 3.73011 7.02081 7.37473 3.73011 3.90699 7.37473 7.72242 3.90699 4.06711 7.72242 8.05172 4.06711 4.20517 8.05172 8.35693 4.20517 4.32171 8.35693 8.64283 4.32171 4.42371 8.64283 8.93186 4.42371 4.51949 8.93186 9.26651 4.51949 4.62283 9.26651 9.70261 4.62283 4.81317 9.70261 10.2867 4.81317 5.24854 10.2867 10.9759 5.24854 5.90996 10.9759 11.3517 5.90996 5.86894 11.3517 11.3465 0 -1.9357 0 -1.72533 -1.9357 -2.73954 -1.72533 -2.72264 -2.73954 -2.89585 -2.72264 -3.26672 -2.89585 -2.65551 -3.26672 -3.48668 -2.65551 -2.17131 -3.48668 -3.43124 -2.17131 -1.56845 -3.43124 -3.10901 -1.56845 -0.94723 -3.10901 -2.54928 -0.94723 -0.332141 -2.54928 -1.81555 -0.332141 0.279236 -1.81555 -0.963594 0.279236 0.879145 -0.963594 -0.0407853 0.879145 1.45367 -0.0407853 0.899127 1.45367 1.99125 0.899127 1.79898 1.99125 2.48451 1.79898 2.64164 2.48451 2.93126 2.64164 3.433 2.93126 3.33458 3.433 4.17051 3.33458 3.69965 4.17051 4.84684 3.69965 4.02936 4.84684 5.45748 4.02936 4.32554 5.45748 6.00547 4.32554 4.59303 6.00547 6.50267 4.59303 4.83924 6.50267 6.96179 4.83924 5.07215 6.96179 7.39401 5.07215 5.30032 7.39401 7.81075 5.30032 5.5332 7.81075 8.22405 5.5332 5.7806 8.22405 8.64543 5.7806 6.051 8.64543 9.08436 6.051 6.34934 9.08436 9.54692 6.34934 6.67495 9.54692 10.035 6.67495 7.02081 10.035 10.546 7.02081 7.37473 10.546 11.0735 7.37473 7.72242 11.0735 11.6089 7.72242 8.05172 11.6089 12.1435 8.05172 8.35693 12.1435 12.6732 8.35693 8.64283 12.6732 13.2068 8.64283 8.93186 13.2068 13.7663 8.93186 9.26651 13.7663 14.3826 9.26651 9.70261 14.3826 15.0533 9.70261 10.2867 15.0533 15.7011 10.2867 10.9759 15.7011 16.2389 10.9759 11.3517 16.2389 16.5786 11.3517 11.3465 16.5786 16.4992 0 -1.72533 0 -1.16056 -1.72533 -2.72264 -1.16056 -1.98394 -2.72264 -3.26672 -1.98394 -2.5206 -3.26672 -3.48668 -2.5206 -2.81093 -3.48668 -3.43124 -2.81093 -2.87853 -3.43124 -3.10901 -2.87853 -2.74777 -3.10901 -2.54928 -2.74777 -2.44375 -2.54928 -1.81555 -2.44375 -1.98735 -1.81555 -0.963594 -1.98735 -1.39004 -0.963594 -0.0407853 -1.39004 -0.668311 -0.0407853 0.899127 -0.668311 0.167999 0.899127 1.79898 0.167999 1.10092 1.79898 2.64164 1.10092 2.10468 2.64164 3.433 2.10468 3.16381 3.433 4.17051 3.16381 4.25448 4.17051 4.84684 4.25448 5.32417 4.84684 5.45748 5.32417 6.31783 5.45748 6.00547 6.31783 7.22875 6.00547 6.50267 7.22875 8.06362 6.50267 6.96179 8.06362 8.83474 6.96179 7.39401 8.83474 9.55708 7.39401 7.81075 9.55708 10.2473 7.81075 8.22405 10.2473 10.921 8.22405 8.64543 10.921 11.59 8.64543 9.08436 11.59 12.2625 9.08436 9.54692 12.2625 12.9439 9.54692 10.035 12.9439 13.6375 10.035 10.546 13.6375 14.3456 10.546 11.0735 14.3456 15.0685 11.0735 11.6089 15.0685 15.8025 11.6089 12.1435 15.8025 16.5393 12.1435 12.6732 16.5393 17.2682 12.6732 13.2068 17.2682 17.9962 13.2068 13.7663 17.9962 18.7457 13.7663 14.3826 18.7457 19.4974 14.3826 15.0533 19.4974 20.2108 15.0533 15.7011 20.2108 20.8119 15.7011 16.2389 20.8119 21.2641 16.2389 16.5786 21.2641 21.4747 16.5786 16.4992 