# vtk DataFile Version 3.0
#This file was generated by the deal.II library on 2015/9/1 at 17:13: 4
ASCII
DATASET UNSTRUCTURED_GRID

POINTS 11912 double
0 0 0
0.05 0 0
0 0.05 0
0.05 0.05 0
0.05 0 0
0.1 0 0
0.05 0.05 0
0.1 0.05 0
0.1 0 0
0.15 0 0
0.1 0.05 0
0.15 0.05 0
0.15 0 0
0.2 0 0
0.15 0.05 0
0.2 0.05 0
0.2 0 0
0.25 0 0
0.2 0.05 0
0.25 0.05 0
0.25 0 0
0.3 0 0
0.25 0.05 0
0.3 0.05 0
0.3 0 0
0.35 0 0
0.3 0.05 0
0.35 0.05 0
0.35 0 0
0.4 0 0
0.35 0.05 0
0.4 0.05 0
0.4 0 0
0.45 0 0
0.4 0.05 0
0.45 0.05 0
0.45 0 0
0.5 0 0
0.45 0.05 0
0.5 0.05 0
0.5 0 0
0.55 0 0
0.5 0.05 0
0.55 0.05 0
0.55 0 0
0.6 0 0
0.55 0.05 0
0.6 0.05 0
0.6 0 0
0.65 0 0
0.6 0.05 0
0.65 0.05 0
0.65 0 0
0.7 0 0
0.65 0.05 0
0.7 0.05 0
0.7 0 0
0.75 0 0
0.7 0.05 0
0.75 0.05 0
0.75 0 0
0.8 0 0
0.75 0.05 0
0.8 0.05 0
0.8 0 0
0.85 0 0
0.8 0.05 0
0.85 0.05 0
0.85 0 0
0.9 0 0
0.85 0.05 0
0.9 0.05 0
0.9 0 0
0.95 0 0
0.9 0.05 0
0.95 0.05 0
0.95 0 0
1 0 0
0.95 0.05 0
1 0.05 0
1 0 0
1.05 0 0
1 0.05 0
1.05 0.05 0
1.05 0 0
1.1 0 0
1.05 0.05 0
1.1 0.05 0
1.1 0 0
1.15 0 0
1.1 0.05 0
1.15 0.05 0
1.15 0 0
1.2 0 0
1.15 0.05 0
1.2 0.05 0
1.2 0 0
1.25 0 0
1.2 0.05 0
1.25 0.05 0
1.25 0 0
1.3 0 0
1.25 0.05 0
1.3 0.05 0
0.1 0.05 0
0.15 0.05 0
0.1 0.1 0
0.15 0.1 0
0.15 0.05 0
0.2 0.05 0
0.15 0.1 0
0.2 0.1 0
0.2 0.05 0
0.25 0.05 0
0.2 0.1 0
0.25 0.1 0
0.25 0.05 0
0.3 0.05 0
0.25 0.1 0
0.3 0.1 0
0.2 0.1 0
0.25 0.1 0
0.2 0.15 0
0.25 0.15 0
0.25 0.1 0
0.3 0.1 0
0.25 0.15 0
0.3 0.15 0
0.85 0.45 0
0.9 0.45 0
0.85 0.5 0
0.9 0.5 0
0.9 0.45 0
0.95 0.45 0
0.9 0.5 0
0.95 0.5 0
1.45 0.45 0
1.5 0.45 0
1.45 0.5 0
1.5 0.5 0
1.9 0.45 0
1.95 0.45 0
1.9 0.5 0
1.95 0.5 0
1.95 0.45 0
2 0.45 0
1.95 0.5 0
2 0.5 0
0.65 0.5 0
0.7 0.5 0
0.65 0.55 0
0.7 0.55 0
0.85 0.5 0
0.9 0.5 0
0.85 0.55 0
0.9 0.55 0
0.9 0.5 0
0.95 0.5 0
0.9 0.55 0
0.95 0.55 0
1.9 0.5 0
1.95 0.5 0
1.9 0.55 0
1.95 0.55 0
1.95 0.5 0
2 0.5 0
1.95 0.55 0
2 0.55 0
0.2 0.85 0
0.25 0.85 0
0.2 0.9 0
0.25 0.9 0
0.25 0.85 0
0.3 0.85 0
0.25 0.9 0
0.3 0.9 0
0.1 0.9 0
0.15 0.9 0
0.1 0.95 0
0.15 0.95 0
0.15 0.9 0
0.2 0.9 0
0.15 0.95 0
0.2 0.95 0
0.2 0.9 0
0.25 0.9 0
0.2 0.95 0
0.25 0.95 0
0.25 0.9 0
0.3 0.9 0
0.25 0.95 0
0.3 0.95 0
0 0.95 0
0.05 0.95 0
0 1 0
0.05 1 0
0.05 0.95 0
0.1 0.95 0
0.05 1 0
0.1 1 0
0.1 0.95 0
0.15 0.95 0
0.1 1 0
0.15 1 0
0.15 0.95 0
0.2 0.95 0
0.15 1 0
0.2 1 0
0.2 0.95 0
0.25 0.95 0
0.2 1 0
0.25 1 0
0.25 0.95 0
0.3 0.95 0
0.25 1 0
0.3 1 0
0.3 0.95 0
0.35 0.95 0
0.3 1 0
0.35 1 0
0.35 0.95 0
0.4 0.95 0
0.35 1 0
0.4 1 0
0.4 0.95 0
0.45 0.95 0
0.4 1 0
0.45 1 0
0.45 0.95 0
0.5 0.95 0
0.45 1 0
0.5 1 0
0.5 0.95 0
0.55 0.95 0
0.5 1 0
0.55 1 0
0.55 0.95 0
0.6 0.95 0
0.55 1 0
0.6 1 0
0.6 0.95 0
0.65 0.95 0
0.6 1 0
0.65 1 0
0.65 0.95 0
0.7 0.95 0
0.65 1 0
0.7 1 0
0.7 0.95 0
0.75 0.95 0
0.7 1 0
0.75 1 0
0.75 0.95 0
0.8 0.95 0
0.75 1 0
0.8 1 0
0.8 0.95 0
0.85 0.95 0
0.8 1 0
0.85 1 0
0.85 0.95 0
0.9 0.95 0
0.85 1 0
0.9 1 0
0.9 0.95 0
0.95 0.95 0
0.9 1 0
0.95 1 0
0.95 0.95 0
1 0.95 0
0.95 1 0
1 1 0
1 0.95 0
1.05 0.95 0
1 1 0
1.05 1 0
1.05 0.95 0
1.1 0.95 0
1.05 1 0
1.1 1 0
1.1 0.95 0
1.15 0.95 0
1.1 1 0
1.15 1 0
1.15 0.95 0
1.2 0.95 0
1.15 1 0
1.2 1 0
1.2 0.95 0
1.25 0.95 0
1.2 1 0
1.25 1 0
1.25 0.95 0
1.3 0.95 0
1.25 1 0
1.3 1 0
1.3 0 0
1.325 0 0
1.3 0.025 0
1.325 0.025 0
1.325 0 0
1.35 0 0
1.325 0.025 0
1.35 0.025 0
1.3 0.025 0
1.325 0.025 0
1.3 0.05 0
1.325 0.05 0
1.325 0.025 0
1.35 0.025 0
1.325 0.05 0
1.35 0.05 0
1.35 0 0
1.375 0 0
1.35 0.025 0
1.375 0.025 0
1.375 0 0
1.4 0 0
1.375 0.025 0
1.4 0.025 0
1.35 0.025 0
1.375 0.025 0
1.35 0.05 0
1.375 0.05 0
1.375 0.025 0
1.4 0.025 0
1.375 0.05 0
1.4 0.05 0
1.4 0 0
1.425 0 0
1.4 0.025 0
1.425 0.025 0
1.425 0 0
1.45 0 0
1.425 0.025 0
1.45 0.025 0
1.4 0.025 0
1.425 0.025 0
1.4 0.05 0
1.425 0.05 0
1.425 0.025 0
1.45 0.025 0
1.425 0.05 0
1.45 0.05 0
1.45 0 0
1.475 0 0
1.45 0.025 0
1.475 0.025 0
1.475 0 0
1.5 0 0
1.475 0.025 0
1.5 0.025 0
1.45 0.025 0
1.475 0.025 0
1.45 0.05 0
1.475 0.05 0
1.475 0.025 0
1.5 0.025 0
1.475 0.05 0
1.5 0.05 0
1.5 0 0
1.525 0 0
1.5 0.025 0
1.525 0.025 0
1.525 0 0
1.55 0 0
1.525 0.025 0
1.55 0.025 0
1.5 0.025 0
1.525 0.025 0
1.5 0.05 0
1.525 0.05 0
1.525 0.025 0
1.55 0.025 0
1.525 0.05 0
1.55 0.05 0
1.55 0 0
1.575 0 0
1.55 0.025 0
1.575 0.025 0
1.575 0 0
1.6 0 0
1.575 0.025 0
1.6 0.025 0
1.55 0.025 0
1.575 0.025 0
1.55 0.05 0
1.575 0.05 0
1.575 0.025 0
1.6 0.025 0
1.575 0.05 0
1.6 0.05 0
1.6 0 0
1.625 0 0
1.6 0.025 0
1.625 0.025 0
1.625 0 0
1.65 0 0
1.625 0.025 0
1.65 0.025 0
1.6 0.025 0
1.625 0.025 0
1.6 0.05 0
1.625 0.05 0
1.625 0.025 0
1.65 0.025 0
1.625 0.05 0
1.65 0.05 0
1.65 0 0
1.675 0 0
1.65 0.025 0
1.675 0.025 0
1.675 0 0
1.7 0 0
1.675 0.025 0
1.7 0.025 0
1.65 0.025 0
1.675 0.025 0
1.65 0.05 0
1.675 0.05 0
1.675 0.025 0
1.7 0.025 0
1.675 0.05 0
1.7 0.05 0
1.7 0 0
1.725 0 0
1.7 0.025 0
1.725 0.025 0
1.725 0 0
1.75 0 0
1.725 0.025 0
1.75 0.025 0
1.7 0.025 0
1.725 0.025 0
1.7 0.05 0
1.725 0.05 0
1.725 0.025 0
1.75 0.025 0
1.725 0.05 0
1.75 0.05 0
1.75 0 0
1.775 0 0
1.75 0.025 0
1.775 0.025 0
1.775 0 0
1.8 0 0
1.775 0.025 0
1.8 0.025 0
1.75 0.025 0
1.775 0.025 0
1.75 0.05 0
1.775 0.05 0
1.775 0.025 0
1.8 0.025 0
1.775 0.05 0
1.8 0.05 0
1.8 0 0
1.825 0 0
1.8 0.025 0
1.825 0.025 0
1.825 0 0
1.85 0 0
1.825 0.025 0
1.85 0.025 0
1.8 0.025 0
1.825 0.025 0
1.8 0.05 0
1.825 0.05 0
1.825 0.025 0
1.85 0.025 0
1.825 0.05 0
1.85 0.05 0
1.85 0 0
1.875 0 0
1.85 0.025 0
1.875 0.025 0
1.875 0 0
1.9 0 0
1.875 0.025 0
1.9 0.025 0
1.85 0.025 0
1.875 0.025 0
1.85 0.05 0
1.875 0.05 0
1.875 0.025 0
1.9 0.025 0
1.875 0.05 0
1.9 0.05 0
1.9 0 0
1.925 0 0
1.9 0.025 0
1.925 0.025 0
1.925 0 0
1.95 0 0
1.925 0.025 0
1.95 0.025 0
1.9 0.025 0
1.925 0.025 0
1.9 0.05 0
1.925 0.05 0
1.925 0.025 0
1.95 0.025 0
1.925 0.05 0
1.95 0.05 0
1.95 0 0
1.975 0 0
1.95 0.025 0
1.975 0.025 0
1.975 0 0
2 0 0
1.975 0.025 0
2 0.025 0
1.95 0.025 0
1.975 0.025 0
1.95 0.05 0
1.975 0.05 0
1.975 0.025 0
2 0.025 0
1.975 0.05 0
2 0.05 0
0 0.05 0
0.025 0.05 0
0 0.075 0
0.025 0.075 0
0.025 0.05 0
0.05 0.05 0
0.025 0.075 0
0.05 0.075 0
0 0.075 0
0.025 0.075 0
0 0.1 0
0.025 0.1 0
0.025 0.075 0
0.05 0.075 0
0.025 0.1 0
0.05 0.1 0
0.05 0.05 0
0.075 0.05 0
0.05 0.075 0
0.075 0.075 0
0.075 0.05 0
0.1 0.05 0
0.075 0.075 0
0.1 0.075 0
0.05 0.075 0
0.075 0.075 0
0.05 0.1 0
0.075 0.1 0
0.075 0.075 0
0.1 0.075 0
0.075 0.1 0
0.1 0.1 0
0.3 0.05 0
0.325 0.05 0
0.3 0.075 0
0.325 0.075 0
0.325 0.05 0
0.35 0.05 0
0.325 0.075 0
0.35 0.075 0
0.3 0.075 0
0.325 0.075 0
0.3 0.1 0
0.325 0.1 0
0.325 0.075 0
0.35 0.075 0
0.325 0.1 0
0.35 0.1 0
0.35 0.05 0
0.375 0.05 0
0.35 0.075 0
0.375 0.075 0
0.375 0.05 0
0.4 0.05 0
0.375 0.075 0
0.4 0.075 0
0.35 0.075 0
0.375 0.075 0
0.35 0.1 0
0.375 0.1 0
0.375 0.075 0
0.4 0.075 0
0.375 0.1 0
0.4 0.1 0
0.4 0.05 0
0.425 0.05 0
0.4 0.075 0
0.425 0.075 0
0.425 0.05 0
0.45 0.05 0
0.425 0.075 0
0.45 0.075 0
0.4 0.075 0
0.425 0.075 0
0.4 0.1 0
0.425 0.1 0
0.425 0.075 0
0.45 0.075 0
0.425 0.1 0
0.45 0.1 0
0.45 0.05 0
0.475 0.05 0
0.45 0.075 0
0.475 0.075 0
0.475 0.05 0
0.5 0.05 0
0.475 0.075 0
0.5 0.075 0
0.45 0.075 0
0.475 0.075 0
0.45 0.1 0
0.475 0.1 0
0.475 0.075 0
0.5 0.075 0
0.475 0.1 0
0.5 0.1 0
0.5 0.05 0
0.525 0.05 0
0.5 0.075 0
0.525 0.075 0
0.525 0.05 0
0.55 0.05 0
0.525 0.075 0
0.55 0.075 0
0.5 0.075 0
0.525 0.075 0
0.5 0.1 0
0.525 0.1 0
0.525 0.075 0
0.55 0.075 0
0.525 0.1 0
0.55 0.1 0
0.55 0.05 0
0.575 0.05 0
0.55 0.075 0
0.575 0.075 0
0.575 0.05 0
0.6 0.05 0
0.575 0.075 0
0.6 0.075 0
0.55 0.075 0
0.575 0.075 0
0.55 0.1 0
0.575 0.1 0
0.575 0.075 0
0.6 0.075 0
0.575 0.1 0
0.6 0.1 0
0.6 0.05 0
0.625 0.05 0
0.6 0.075 0
0.625 0.075 0
0.625 0.05 0
0.65 0.05 0
0.625 0.075 0
0.65 0.075 0
0.6 0.075 0
0.625 0.075 0
0.6 0.1 0
0.625 0.1 0
0.625 0.075 0
0.65 0.075 0
0.625 0.1 0
0.65 0.1 0
0.65 0.05 0
0.675 0.05 0
0.65 0.075 0
0.675 0.075 0
0.675 0.05 0
0.7 0.05 0
0.675 0.075 0
0.7 0.075 0
0.65 0.075 0
0.675 0.075 0
0.65 0.1 0
0.675 0.1 0
0.675 0.075 0
0.7 0.075 0
0.675 0.1 0
0.7 0.1 0
0.7 0.05 0
0.725 0.05 0
0.7 0.075 0
0.725 0.075 0
0.725 0.05 0
0.75 0.05 0
0.725 0.075 0
0.75 0.075 0
0.7 0.075 0
0.725 0.075 0
0.7 0.1 0
0.725 0.1 0
0.725 0.075 0
0.75 0.075 0
0.725 0.1 0
0.75 0.1 0
0.75 0.05 0
0.775 0.05 0
0.75 0.075 0
0.775 0.075 0
0.775 0.05 0
0.8 0.05 0
0.775 0.075 0
0.8 0.075 0
0.75 0.075 0
0.775 0.075 0
0.75 0.1 0
0.775 0.1 0
0.775 0.075 0
0.8 0.075 0
0.775 0.1 0
0.8 0.1 0
0.8 0.05 0
0.825 0.05 0
0.8 0.075 0
0.825 0.075 0
0.825 0.05 0
0.85 0.05 0
0.825 0.075 0
0.85 0.075 0
0.8 0.075 0
0.825 0.075 0
0.8 0.1 0
0.825 0.1 0
0.825 0.075 0
0.85 0.075 0
0.825 0.1 0
0.85 0.1 0
0.85 0.05 0
0.875 0.05 0
0.85 0.075 0
0.875 0.075 0
0.875 0.05 0
0.9 0.05 0
0.875 0.075 0
0.9 0.075 0
0.85 0.075 0
0.875 0.075 0
0.85 0.1 0
0.875 0.1 0
0.875 0.075 0
0.9 0.075 0
0.875 0.1 0
0.9 0.1 0
0.9 0.05 0
0.925 0.05 0
0.9 0.075 0
0.925 0.075 0
0.925 0.05 0
0.95 0.05 0
0.925 0.075 0
0.95 0.075 0
0.9 0.075 0
0.925 0.075 0
0.9 0.1 0
0.925 0.1 0
0.925 0.075 0
0.95 0.075 0
0.925 0.1 0
0.95 0.1 0
0.95 0.05 0
0.975 0.05 0
0.95 0.075 0
0.975 0.075 0
0.975 0.05 0
1 0.05 0
0.975 0.075 0
1 0.075 0
0.95 0.075 0
0.975 0.075 0
0.95 0.1 0
0.975 0.1 0
0.975 0.075 0
1 0.075 0
0.975 0.1 0
1 0.1 0
1 0.05 0
1.025 0.05 0
1 0.075 0
1.025 0.075 0
1.025 0.05 0
1.05 0.05 0
1.025 0.075 0
1.05 0.075 0
1 0.075 0
1.025 0.075 0
1 0.1 0
1.025 0.1 0
1.025 0.075 0
1.05 0.075 0
1.025 0.1 0
1.05 0.1 0
1.05 0.05 0
1.075 0.05 0
1.05 0.075 0
1.075 0.075 0
1.075 0.05 0
1.1 0.05 0
1.075 0.075 0
1.1 0.075 0
1.05 0.075 0
1.075 0.075 0
1.05 0.1 0
1.075 0.1 0
1.075 0.075 0
1.1 0.075 0
1.075 0.1 0
1.1 0.1 0
1.1 0.05 0
1.125 0.05 0
1.1 0.075 0
1.125 0.075 0
1.125 0.05 0
1.15 0.05 0
1.125 0.075 0
1.15 0.075 0
1.1 0.075 0
1.125 0.075 0
1.1 0.1 0
1.125 0.1 0
1.125 0.075 0
1.15 0.075 0
1.125 0.1 0
1.15 0.1 0
1.15 0.05 0
1.175 0.05 0
1.15 0.075 0
1.175 0.075 0
1.175 0.05 0
1.2 0.05 0
1.175 0.075 0
1.2 0.075 0
1.15 0.075 0
1.175 0.075 0
1.15 0.1 0
1.175 0.1 0
1.175 0.075 0
1.2 0.075 0
1.175 0.1 0
1.2 0.1 0
1.2 0.05 0
1.225 0.05 0
1.2 0.075 0
1.225 0.075 0
1.225 0.05 0
1.25 0.05 0
1.225 0.075 0
1.25 0.075 0
1.2 0.075 0
1.225 0.075 0
1.2 0.1 0
1.225 0.1 0
1.225 0.075 0
[...]
POINT_DATA 11912
SCALARS x_displacement double 1
LOOKUP_TABLE default
0 -1.46295 0 -0.854115 -1.46295 -2.55145 -0.854115 -1.74504 -2.55145 -3.44142 -1.74504 -2.52017 -3.44142 -4.19926 -2.52017 -3.20734 -4.19926 -4.86892 -3.20734 -3.82106 -4.86892 -5.48892 -3.82106 -4.37848 -5.48892 -6.09319 -4.37848 -4.90777 -6.09319 -6.70447 -4.90777 -5.42515 -6.70447 -7.31898 -5.42515 -5.94637 -7.31898 -7.92299 -5.94637 -6.47305 -7.92299 -8.51 -6.47305 -6.99982 -8.51 -9.08539 -6.99982 -7.52331 -9.08539 -9.65346 -7.52331 -8.04268 -9.65346 -10.2112 -8.04268 -8.55776 -10.2112 -10.7555 -8.55776 -9.07073 -10.7555 -11.2859 -9.07073 -9.58213 -11.2859 -11.8024 -9.58213 -10.0919 -11.8024 -12.3051 -10.0919 -10.6002 -12.3051 -12.7935 -10.6002 -11.1071 -12.7935 -13.2689 -11.1071 -11.6113 -13.2689 -13.7415 -11.6113 -12.1067 -13.7415 -14.2378 -12.1067 -12.5877 -14.2378 -14.7834 -12.5877 -13.0548 -14.7834 -15.358 -13.0548 -13.5075 -15.358 -15.8657 -13.5075 -13.9305 -15.8657 -16.2335 -13.9305 -14.3199 -1.74504 -2.52017 -1.2064 -1.81691 -2.52017 -3.20734 -1.81691 -2.38298 -3.20734 -3.82106 -2.38298 -2.89898 -3.82106 -4.37848 -2.89898 -3.35644 -2.38298 -2.89898 -1.67477 -2.09807 -2.89898 -3.35644 -2.09807 -2.47879 -1.07443 -1.19678 -0.0203671 -0.0191609 -1.19678 -1.2574 -0.0191609 -0.0186982 -1.34344 -1.34886 -0.0105597 -0.0102075 -2.05901 -2.32285 -0.00868144 -0.00876388 -2.32285 -2.39881 -0.00876388 -0.00881557 -0.236922 -0.147209 0.355807 0.497319 -0.0203671 -0.0191609 1.03479 1.15881 -0.0191609 -0.0186982 1.15881 1.22031 -0.00868144 -0.00876388 2.04144 2.3052 -0.00876388 -0.00881557 2.3052 2.38107 1.6639 2.08788 2.37822 2.89366 2.08788 2.46866 2.89366 3.35038 1.20246 1.81254 1.74748 2.5228 1.81254 2.37822 2.5228 3.20922 2.37822 2.89366 3.20922 3.82145 2.89366 3.35038 3.82145 4.37702 0 0.855571 0 1.47123 0.855571 1.74748 1.47123 2.56313 1.74748 2.5228 2.56313 3.45334 2.5228 3.20922 3.45334 4.20952 3.20922 3.82145 4.20952 4.87623 3.82145 4.37702 4.87623 5.49243 4.37702 4.90425 5.49243 6.09219 4.90425 5.41931 6.09219 6.69819 5.41931 5.93709 6.69819 7.30772 5.93709 6.45958 7.30772 7.90861 6.45958 6.98212 7.90861 8.49418 6.98212 7.50244 8.49418 9.06739 7.50244 8.01984 9.06739 9.63168 8.01984 8.53402 9.63168 10.1853 8.53402 9.04637 10.1853 10.7263 9.04637 9.55725 10.7263 11.2544 9.55725 10.0666 11.2544 11.7695 10.0666 10.5746 11.7695 12.2717 10.5746 11.0813 12.2717 12.7606 11.0813 11.5855 12.7606 13.2373 11.5855 12.0811 13.2373 13.7117 12.0811 12.5627 13.7117 14.2097 12.5627 13.0305 14.2097 14.7567 13.0305 13.4839 14.7567 15.3327 13.4839 13.9072 15.3327 15.8413 13.9072 14.2966 15.8413 16.2094 -16.2335 -16.3946 -15.2767 -15.4354 -16.3946 -16.5286 -15.4354 -15.5963 -15.2767 -15.4354 -14.3199 -14.4972 -15.4354 -15.5963 -14.4972 -14.6475 -16.5286 -16.6412 -15.5963 -15.7495 -16.6412 -16.6524 -15.7495 -15.8832 -15.5963 -15.7495 -14.6475 -14.7782 -15.7495 -15.8832 -14.7782 -14.9189 -16.6524 -16.7592 -15.8832 -16.0038 -16.7592 -17.2946 -16.0038 -16.0641 -15.8832 -16.0038 -14.9189 -15.0779 -16.0038 -16.0641 -15.0779 -15.1594 -17.2946 -17.6273 -16.0641 -16.3491 -17.6273 -17.8846 -16.3491 -16.6033 -16.0641 -16.3491 -15.1594 -15.1613 -16.3491 -16.6033 -15.1613 -15.3032 -17.8846 -18.1107 -16.6033 -16.8289 -18.1107 -18.3133 -16.8289 -17.0545 -16.6033 -16.8289 -15.3032 -15.6144 -16.8289 -17.0545 -15.6144 -15.8478 -18.3133 -18.5036 -17.0545 -17.2542 -18.5036 -18.6745 -17.2542 -17.4322 -17.0545 -17.2542 -15.8478 -16.0481 -17.2542 -17.4322 -16.0481 -16.2333 -18.6745 -18.8255 -17.4322 -17.5919 -18.8255 -18.9575 -17.5919 -17.7332 -17.4322 -17.5919 -16.2333 -16.3999 -17.5919 -17.7332 -16.3999 -16.5501 -18.9575 -19.0708 -17.7332 -17.8569 -19.0708 -19.1655 -17.8569 -17.963 -17.7332 -17.8569 -16.5501 -16.6833 -17.8569 -17.963 -16.6833 -16.7998 -19.1655 -19.2419 -17.963 -18.052 -19.2419 -19.3005 -18.052 -18.1246 -17.963 -18.052 -16.7998 -16.8998 -18.052 -18.1246 -16.8998 -16.984 -19.3005 -19.3424 -18.1246 -18.1816 -19.3424 -19.369 -18.1816 -18.2245 -18.1246 -18.1816 -16.984 -17.0535 -18.1816 -18.2245 -17.0535 -17.1091 -19.369 -19.3823 -18.2245 -18.2548 -19.3823 -19.3847 -18.2548 -18.2742 -18.2245 -18.2548 -17.1091 -17.152 -18.2548 -18.2742 -17.152 -17.1835 -19.3847 -19.3791 -18.2742 -18.2849 -19.3791 -19.3688 -18.2849 -18.2892 -18.2742 -18.2849 -17.1835 -17.2051 -18.2849 -18.2892 -17.2051 -17.2185 -19.3688 -19.3575 -18.2892 -18.2895 -19.3575 -19.3484 -18.2895 -18.2882 -18.2892 -18.2895 -17.2185 -17.2257 -18.2895 -18.2882 -17.2257 -17.2289 -19.3484 -19.3437 -18.2882 -18.2871 -19.3437 -19.3426 -18.2871 -18.2871 -18.2882 -18.2871 -17.2289 -17.2302 -18.2871 -18.2871 -17.2302 -17.2318 0 -0.427058 0 -0.353634 -0.427058 -0.854115 -0.353634 -0.723259 0 -0.353634 0 -0.284553 -0.353634 -0.723259 -0.284553 -0.599561 -0.854115 -1.29958 -0.723259 -1.09448 -1.29958 -1.74504 -1.09448 -1.47572 -0.723259 -1.09448 -0.599561 -0.908437 -1.09448 -1.47572 -0.908437 -1.2064 -4.37848 -4.64312 -3.86746 -4.09638 -4.64312 -4.90777 -4.09638 -4.32293 -3.86746 -4.09638 -3.35644 -3.56975 -4.09638 -4.32293 -3.56975 -3.75777 -4.90777 -5.16646 -4.32293 -4.55154 -5.16646 -5.42515 -4.55154 -4.78493 -4.32293 -4.55154 -3.75777 -3.94105 -4.55154 -4.78493 -3.94105 -4.13484 -5.42515 -5.68576 -4.78493 -5.01839 -5.68576 -5.94637 -5.01839 -5.25602 -4.78493 -5.01839 -4.13484 -4.34351 -5.01839 -5.25602 -4.34351 -4.55934 -5.94637 -6.20971 -5.25602 -5.49981 -6.20971 -6.47305 -5.49981 -5.74688 -5.25602 -5.49981 -4.55934 -4.78186 -5.49981 -5.74688 -4.78186 -5.01051 -6.47305 -6.73643 -5.74688 -5.99892 -6.73643 -6.99982 -5.99892 -6.24846 -5.74688 -5.99892 -5.01051 -5.2539 -5.99892 -6.24846 -5.2539 -5.4979 -6.99982 -7.26156 -6.24846 -6.50073 -7.26156 -7.52331 -6.50073 -6.74854 -6.24846 -6.50073 -5.4979 -5.74225 -6.50073 -6.74854 -5.74225 -5.97814 -7.52331 -7.783 -6.74854 -6.995 -7.783 -8.04268 -6.995 -7.24075 -6.74854 -6.995 -5.97814 -6.20566 -6.995 -7.24075 -6.20566 -6.43677 -8.04268 -8.30022 -7.24075 -7.48696 -8.30022 -8.55776 -7.48696 -7.7341 -7.24075 -7.48696 -6.43677 -6.67095 -7.48696 -7.7341 -6.67095 -6.9079 -8.55776 -8.81424 -7.7341 -7.98222 -8.81424 -9.07073 -7.98222 -8.23154 -7.7341 -7.98222 -6.9079 -7.14753 -7.98222 -8.23154 -7.14753 -7.3898 -9.07073 -9.32643 -8.23154 -8.48189 -9.32643 -9.58213 -8.48189 -8.73347 -8.23154 -8.48189 -7.3898 -7.63472 -8.48189 -8.73347 -7.63472 -7.88228 -9.58213 -9.83703 -8.73347 -8.98609 -9.83703 -10.0919 -8.98609 -9.23993 -8.73347 -8.98609 -7.88228 -8.13251 -8.98609 -9.23993 -8.13251 -8.38537 -10.0919 -10.3461 -9.23993 -9.49481 -10.3461 -10.6002 -9.49481 -9.75095 -9.23993 -9.49481 -8.38537 -8.6409 -9.49481 -9.75095 -8.6409 -8.89905 -10.6002 -10.8537 -9.75095 -10.0081 -10.8537 -11.1071 -10.0081 -10.2665 -9.75095 -10.0081 -8.89905 -9.15982 -10.0081 -10.2665 -9.15982 -9.42319 -11.1071 -11.3592 -10.2665 -10.5257 -11.3592 -11.6113 -10.5257 -10.7849 -10.2665 -10.5257 -9.42319 -9.68917 -10.5257 -10.7849 -9.68917 -9.95783 -11.6113 -11.859 -10.7849 -11.0421 -11.859 -12.1067 -11.0421 -11.2934 -10.7849 -11.0421 -9.95783 -10.2283 -11.0421 -11.2934 -10.2283 -10.4968 -12.1067 -12.3472 -11.2934 -11.5374 -12.3472 -12.5877 -11.5374 -11.7702 -11.2934 -11.5374 -10.4968 -10.7546 -11.5374 -11.7702 -10.7546 -10.9907 -12.5877 -12.8212 -11.7702 -11.995 -12.8212 -13.0548 -11.995 -12.208 -11.7702 -11.995 -10.9907 -11.2054 -11.995 -12.208 -11.2054 -11.4085 -13.0548 -13.2812 -12.208 -12.4192 -13.2812 -13.5075 -12.4192 -12.6229 -12.208 -12.4192 -11.4085 -11.5947 -12.4192 -12.6229 -11.5947 -11.7684 -13.5075 -13.719 -12.6229 -12.8223 -13.719 -13.9305 -12.8223 -13.0143 -12.6229 -12.8223 -11.7684 -11.9339 -12.8223 -13.0143 -11.9339 -12.0965 -13.9305 -14.1252 -13.0143 -13.198 -14.1252 -14.3199 -13.198 -13.3683 -13.0143 -13.198 -12.0965 -12.2556 -13.198 -13.3683 -12.2556 -12.4039 -14.3199 -14.4972 -13.3683 -13.5211 -14.4972 -14.6475 -13.5211 -13.6626 -13.3683 -13.5211 -12.4039 -12.5409 -13.5211 -13.6626 -12.5409 -12.6721 -14.6475 -14.7782 -13.6626 -13.799 -14.7782 -14.9189 -13.799 -13.9361 -13.6626 -13.799 -12.6721 -12.801 -13.799 -13.9361 -12.801 -12.9318 -14.9189 -15.0779 -13.9361 -14.0592 -15.0779 -15.1594 -14.0592 -14.1873 -13.9361 -14.0592 -12.9318 -13.0621 -14.0592 -14.1873 -13.0621 -13.1911 -15.1594 -15.1613 -14.1873 -14.3245 -15.1613 -15.3032 -14.3245 -14.4292 -14.1873 -14.3245 -13.1911 -13.3319 -14.3245 -14.4292 -13.3319 -13.4893 -15.3032 -15.6144 -14.4292 -14.4649 -15.6144 -15.8478 -14.4649 -14.6865 -14.4292 -14.4649 -13.4893 -13.5789 -14.4649 -14.6865 -13.5789 -13.5827 -15.8478 -16.0481 -14.6865 -14.8862 -16.0481 -16.2333 -14.8862 -15.0723 -14.6865 -14.8862 -13.5827 -13.7194 -14.8862 -15.0723 -13.7194 -13.9602 -16.2333 -16.3999 -15.0723 -15.2488 -16.3999 -16.5501 -15.2488 -15.4063 -15.0723 -15.2488 -13.9602 -14.1393 -15.2488 -15.4063 -14.1393 -14.2971 -16.5501 -16.6833 -15.4063 -15.5477 -16.6833 -16.7998 -15.5477 -15.6737 -15.4063 -15.5477 -14.2971 -14.4502 -15.5477 -15.6737 -14.4502 -14.5829 -16.7998 -16.8998 -15.6737 -15.7828 -16.8998 -16.984 -15.7828 -15.8764 -15.6737 -15.7828 -14.5829 -14.6979 -15.7828 -15.8764 -14.6979 -14.7998 -16.984 -17.0535 -15.8764 -15.956 -17.0535 -17.1091 -15.956 -16.0218 -15.8764 -15.956 -14.7998 -14.8881 -15.956 -16.0218 -14.8881 -14.9626 -17.1091 -17.152 -16.0218 -16.0744 -17.152 -17.1835 -16.0744 -16.1146 -16.0218 -16.0744 -14.9626 -15.0229 -16.0744 -16.1146 -15.0229 -15.0695 -17.1835 -17.2051 -16.1146 -16.1434 -17.2051 -17.2185 -16.1434 -16.1625 -16.1146 -16.1434 -15.0695 -15.1034 -16.1434 -16.1625 -15.1034 -15.1258 -17.2185 -17.2257 -16.1625 -16.1735 -17.2257 -17.2289 -16.1735 -16.1788 -16.1625 -16.1735 -15.1258 -15.1386 -16.1735 -16.1788 -15.1386 -15.1444 -17.2289 -17.2302 -16.1788 -16.181 -17.2302 -17.2318 -16.181 -16.1834 -16.1788 -16.181 -15.1444 -15.1463 -16.181 -16.1834 -15.1463 -15.1486 0 -0.284553 0 -0.23277 -0.284553 -0.599561 -0.23277 -0.478221 0 -0.23277 0 -0.140765 -0.23277 -0.478221 -0.140765 -0.294484 -0.599561 -0.908437 -0.478221 -0.71563 -0.908437 -1.2064 -0.71563 -0.984381 -0.478221 -0.71563 -0.294484 -0.518519 -0.71563 -0.984381 -0.518519 -0.785201 -1.2064 -1.51165 -0.984381 -1.25529 -1.51165 -1.81691 -1.25529 -1.51506 -0.984381 -1.25529 -0.785201 -1.00736 -1.25529 -1.51506 -1.00736 -1.23166 -1.81691 -2.09994 -1.51506 -1.77314 -2.09994 -2.38298 -1.77314 -2.02888 -1.51506 -1.77314 -1.23166 -1.45928 -1.77314 -2.02888 -1.45928 -1.67477 -3.35644 -3.56975 -2.91762 -3.08887 -3.56975 -3.75777 -3.08887 -3.24341 -2.91762 -3.08887 -2.47879 -2.65352 -3.08887 -3.24341 -2.65352 -2.8048 -3.75777 -3.94105 -3.24341 -3.37082 -3.94105 -4.13484 -3.37082 -3.4938 -3.24341 -3.37082 -2.8048 -2.9328 -3.37082 -3.4938 -2.9328 -3.05802 -4.13484 -4.34351 -3.4938 -3.65639 -4.34351 -4.55934 -3.65639 -3.86209 -3.4938 -3.65639 -3.05802 -3.19217 -3.65639 -3.86209 -3.19217 -3.3276 -4.55934 -4.78186 -3.86209 -4.064 -4.78186 -5.01051 -4.064 -4.26424 -3.86209 -4.064 -3.3276 -3.46326 -4.064 -4.26424 -3.46326 -3.55861 -5.01051 -5.2539 -4.26424 -4.49224 -5.2539 -5.4979 -4.49224 -4.74316 -4.26424 -4.49224 -3.55861 -3.71286 -4.49224 -4.74316 -3.71286 -3.96781 -5.4979 -5.74225 -4.74316 -4.97876 -5.74225 -5.97814 -4.97876 -5.20388 -4.74316 -4.97876 -3.96781 -4.22015 -4.97876 -5.20388 -4.22015 -4.42216 -5.97814 -6.20566 -5.20388 -5.41346 -6.20566 -6.43677 -5.41346 -5.63019 -5.20388 -5.41346 -4.42216 -4.62007 -5.41346 -5.63019 -4.62007 -4.82349 -6.43677 -6.67095 -5.63019 -5.85247 -6.67095 -6.9079 -5.85247 -6.07932 -5.63019 -5.85247 -4.82349 -5.03362 -5.85247 -6.07932 -5.03362 -5.2504 -6.9079 -7.14753 -6.07932 -6.31044 -7.14753 -7.3898 -6.31044 -6.54572 -6.07932 -6.31044 -5.2504 -5.47302 -6.31044 -6.54572 -5.47302 -5.70132 -7.3898 -7.63472 -6.54572 -6.78516 -7.63472 -7.88228 -6.78516 -7.02877 -6.54572 -6.78516 -5.70132 -5.93529 -6.78516 -7.02877 -5.93529 -6.17493 -7.88228 -8.13251 -7.02877 -7.27654 -8.13251 -8.38537 -7.27654 -7.5285 -7.02877 -7.27654 -6.17493 -6.42027 -7.27654 -7.5285 -6.42027 -6.6713 -8.38537 -8.6409 -7.5285 -7.7846 -8.6409 -8.89905 -7.7846 -8.04482 -7.5285 -7.7846 -6.6713 -6.928 -7.7846 -8.04482 -6.928 -7.19026 -8.89905 -9.15982 -8.04482 -8.30907 -9.15982 -9.42319 -8.30907 -8.5773 -8.04482 -8.30907 -7.19026 -7.45795 -8.30907 -8.5773 -7.45795 -7.73101 -9.42319 -9.68917 -8.5773 -8.84985 -9.68917 -9.95783 -8.84985 -9.12843 -8.5773 -8.84985 -7.73101 -8.01009 -8.84985 -9.12843 -8.01009 -8.29957 -9.95783 -10.2283 -9.12843 -9.41941 -10.2283 -10.4968 -9.41941 -9.73105 -9.12843 -9.41941 -8.29957 -8.61846 -9.41941 -9.73105 -8.61846 -9.0205 -10.4968 -10.7546 -9.73105 -10.028 -10.7546 -10.9907 -10.028 -10.2663 -9.73105 -10.028 -9.0205 -9.3617 -10.028 -10.2663 -9.3617 -9.63867 -10.9907 -11.2054 -10.2663 -10.4843 -11.2054 -11.4085 -10.4843 -10.6783 -10.2663 -10.4843 -9.63867 -9.88182 -10.4843 -10.6783 -9.88182 -10.0076 -11.4085 -11.5947 -10.6783 -10.8222 -11.5947 -11.7684 -10.8222 -10.9408 -10.6783 -10.8222 -10.0076 -10.0816 -10.8222 -10.9408 -10.0816 -10.1363 -11.7684 -11.9339 -10.9408 -11.0517 -11.9339 -12.0965 -11.0517 -11.1625 -10.9408 -11.0517 -10.1363 -10.1821 -11.0517 -11.1625 -10.1821 -10.2217 -12.0965 -12.2556 -11.1625 -11.2777 -12.2556 -12.4039 -11.2777 -11.4039 -11.1625 -11.2777 -10.2217 -10.2654 -11.2777 -11.4039 -10.2654 -10.3479 -12.4039 -12.5409 -11.4039 -11.5318 -12.5409 -12.6721 -11.5318 -11.658 -11.4039 -11.5318 -10.3479 -10.4698 -11.5318 -11.658 -10.4698 -10.6132 -12.6721 -12.801 -11.658 -11.788 -12.801 -12.9318 -11.788 -11.9218 -11.658 -11.788 -10.6132 -10.7614 -11.788 -11.9218 -10.7614 -10.9051 -12.9318 -13.0621 -11.9218 -12.0572 -13.0621 -13.1911 -12.0572 -12.1963 -11.9218 -12.0572 -10.9051 -11.0486 -12.0572 -12.1963 -11.0486 -11.1926 -13.1911 -13.3319 -12.1963 -12.3404 -13.3319 -13.4893 -12.3404 -12.4735 -12.1963 -12.3404 -11.1926 -11.3382 -12.3404 -12.4735 -11.3382 -11.4838 -13.4893 -13.5789 -12.4735 -12.6168 -13.5789 -13.5827 -12.6168 -12.7873 -12.4735 -12.6168 -11.4838 -11.6319 -12.6168 -12.7873 -11.6319 -11.7802 -13.5827 -13.7194 -12.7873 -12.8898 -13.7194 -13.9602 -12.8898 -12.8741 -12.7873 -12.8898 -11.7802 -11.9234 -12.8898 -12.8741 -11.9234 -12.0302 -13.9602 -14.1393 -12.8741 -13.0538 -14.1393 -14.2971 -13.0538 -13.2331 -12.8741 -13.0538 -12.0302 -12.1285 -13.0538 -13.2331 -12.1285 -12.187 -14.2971 -14.4502 -13.2331 -13.3906 -14.4502 -14.5829 -13.3906 -13.5212 -13.2331 -13.3906 -12.187 -12.3486 -13.3906 -13.5212 -12.3486 -12.4826 -14.5829 -14.6979 -13.5212 -13.6422 -14.6979 -14.7998 -13.6422 -13.7523 -13.5212 -13.6422 -12.4826 -12.6118 -13.6422 -13.7523 -12.6118 -12.736 -14.7998 -14.8881 -13.7523 -13.8496 -14.8881 -14.9626 -13.8496 -13.9315 -13.7523 -13.8496 -12.736 -12.8405 -13.8496 -13.9315 -12.8405 -12.9284 -14.9626 -15.0229 -13.9315 -13.9982 -15.0229 -15.0695 -13.9982 -14.0501 -13.9315 -13.9982 -12.9284 -13.0014 -13.9982 -14.0501 -13.0014 -13.0578 -15.0695 -15.1034 -14.0501 -14.0877 -15.1034 -15.1258 -14.0877 -14.1123 -14.0501 -14.0877 -13.0578 -13.0986 -14.0877 -14.1123 -13.0986 -13.1252 -15.1258 -15.1386 -14.1123 -14.1258 -15.1386 -15.1444 -14.1258 -14.1309 -14.1123 -14.1258 -13.1252 -13.1389 -14.1258 -14.1309 -13.1389 -13.1426 -15.1444 -15.1463 -14.1309 -14.1314 -15.1463 -15.1486 -14.1314 -14.1325 -14.1309 -14.1314 -13.1426 -13.1407 -14.1314 -14.1325 -13.1407 -13.1394 0 -0.140765 0 -0.0791431 -0.140765 -0.294484 -0.0791431 -0.0752722 0 -0.0791431 0 -0.143478 -0.0791431 -0.0752722 -0.143478 -0.324128 -0.294484 -0.518519 -0.0752722 -0.342594 -0.518519 -0.785201 -0.342594 -0.558439 -0.0752722 -0.342594 -0.324128 -0.568921 -0.342594 -0.558439 -0.568921 -0.368998 -0.785201 -1.00736 -0.558439 -0.762289 -1.00736 -1.23166 -0.762289 -0.967938 -0.558439 -0.762289 -0.368998 -0.507599 -0.762289 -0.967938 -0.507599 -0.676129 -1.23166 -1.45928 -0.967938 -1.15383 -1.45928 -1.67477 -1.15383 -1.34603 -0.967938 -1.15383 -0.676129 -0.850326 -1.15383 -1.34603 -0.850326 -1.0336 -1.67477 -1.88642 -1.34603 -1.54336 -1.88642 -2.09807 -1.54336 -1.73019 -1.34603 -1.54336 -1.0336 -1.20051 -1.54336 -1.73019 -1.20051 -1.37409 -2.09807 -2.28843 -1.73019 -1.91366 -2.28843 -2.47879 -1.91366 -2.0896 -1.73019 -1.91366 -1.37409 -1.55185 -1.91366 -2.0896 -1.55185 -1.72127 -2.47879 -2.65352 -2.0896 -2.25809 -2.65352 -2.8048 -2.25809 -2.41951 -2.0896 -2.25809 -1.72127 -1.88815 -2.25809 -2.41951 -1.88815 -2.05491 -2.8048 -2.9328 -2.41951 -2.57573 -2.9328 -3.05802 -2.57573 -2.73343 -2.41951 -2.57573 -2.05491 -2.22065 -2.57573 -2.73343 -2.22065 -2.3852 -3.05802 -3.19217 -2.73343 -2.88831 -3.19217 -3.3276 -2.88831 -3.04304 -2.73343 -2.88831 -2.3852 -2.55086 -2.88831 -3.04304 -2.55086 -2.72419 -3.3276 -3.46326 -3.04304 -3.21497 -3.46326 -3.55861 -3.21497 -3.39327 -3.04304 -3.21497 -2.72419 -2.89617 -3.21497 -3.39327 -2.89617 -3.06705 -3.55861 -3.71286 -3.39327 -3.58232 -3.71286 -3.96781 -3.58232 -3.75073 -3.39327 -3.58232 -3.06705 -3.25894 -3.58232 -3.75073 -3.25894 -3.45016 -3.96781 -4.22015 -3.75073 -3.62426 -4.22015 -4.42216 -3.62426 -3.82696 -3.75073 -3.62426 -3.45016 -3.64599 -3.62426 -3.82696 -3.64599 -3.84882 -4.42216 -4.62007 -3.82696 -4.10849 -4.62007 -4.82349 -4.10849 -4.39506 -3.82696 -4.10849 -3.84882 -3.77045 -4.10849 -4.39506 -3.77045 -3.73674 -4.82349 -5.03362 -4.39506 -4.60307 -5.03362 -5.2504 -4.60307 -4.81097 -4.39506 -4.60307 -3.73674 -4.07479 -4.60307 -4.81097 -4.07479 -4.40035 -5.2504 -5.47302 -4.81097 -5.06075 -5.47302 -5.70132 -5.06075 -5.30069 -4.81097 -5.06075 -4.40035 -4.6299 -5.06075 -5.30069 -4.6299 -4.872 -5.70132 -5.93529 -5.30069 -5.54719 -5.93529 -6.17493 -5.54719 -5.79745 -5.30069 -5.54719 -4.872 -5.11766 -5.54719 -5.79745 -5.11766 -5.37898 -6.17493 -6.42027 -5.79745 -6.05531 -6.42027 -6.6713 -6.05531 -6.32309 -5.79745 -6.05531 -5.37898 -5.63634 -6.05531 -6.32309 -5.63634 -5.9198 -6.6713 -6.928 -6.32309 -6.60304 -6.928 -7.19026 -6.60304 -6.89161 -6.32309 -6.60304 -5.9198 -6.22047 -6.60304 -6.89161 -6.22047 -6.52609 -7.19026 -7.45795 -6.89161 -7.18845 -7.45795 -7.73101 -7.18845 -7.50063 -6.89161 -7.18845 -6.52609 -6.83606 -7.18845 -7.50063 -6.83606 -7.15181 -7.73101 -8.01009 -7.50063 -7.8523 -8.01009 -8.29957 -7.8523 -8.30495 -7.50063 -7.8523 -7.15181 -7.46987 -7.8523 -8.30495 -7.46987 -7.7554 -8.29957 -8.61846 -8.30495 -9.00461 -8.61846 -9.0205 -9.00461 -9.13206 -8.30495 -9.00461 -7.7554 -8.01242 -9.00461 -9.13206 -8.01242 -8.31779 -9.0205 -9.3617 -9.13206 -9.05778 -9.3617 -9.63867 -9.05778 -9.20287 -9.13206 -9.05778 -8.31779 -8.56794 -9.05778 -9.20287 -8.56794 -8.55147 -9.63867 -9.88182 -9.20287 -9.27902 -9.88182 -10.0076 -9.27902 -9.32143 -9.20287 -9.27902 -8.55147 -8.57739 -9.27902 -9.32143 -8.57739 -8.58917 -10.0076 -10.0816 -9.32143 -9.34116 -10.0816 -10.1363 -9.34116 -9.34558 -9.32143 -9.34116 -8.58917 -8.58449 -9.34116 -9.34558 -8.58449 -8.55595 -10.1363 -10.1821 -9.34558 -9.33499 -10.1821 -10.2217 -9.33499 -9.31102 -9.34558 -9.33499 -8.55595 -8.50814 -9.33499 -9.31102 -8.50814 -8.44082 -10.2217 -10.2654 -9.31102 -9.26601 -10.2654 -10.3479 -9.26601 -9.23696 -9.31102 -9.26601 -8.44082 -8.35947 -9.26601 -9.23696 -8.35947 -8.16757 -10.3479 -10.4698 -9.23696 -9.38277 -10.4698 -10.6132 -9.38277 -9.56651 -9.23696 -9.38277 -8.16757 -8.3036 -9.38277 -9.56651 -8.3036 -8.50789 -10.6132 -10.7614 -9.56651 -9.71885 -10.7614 -10.9051 -9.71885 -9.87639 -9.56651 -9.71885 -8.50789 -8.68345 -9.71885 -9.87639 -8.68345 -8.8625 -10.9051 -11.0486 -9.87639 -10.0365 -11.0486 -11.1926 -10.0365 -10.1883 -9.87639 -10.0365 -8.8625 -9.0242 -10.0365 -10.1883 -9.0242 -9.18281 -11.1926 -11.3382 -10.1883 -10.3381 -11.3382 -11.4838 -10.3381 -10.4877 -10.1883 -10.3381 -9.18281 -9.34172 -10.3381 -10.4877 -9.34172 -9.49501 -11.4838 -11.6319 -10.4877 -10.6402 -11.6319 -11.7802 -10.6402 -10.7875 -10.4877 -10.6402 -9.49501 -9.64571 -10.6402 -10.7875 -9.64571 -9.79468 -11.7802 -11.9234 -10.7875 -10.9204 -11.9234 -12.0302 -10.9204 -11.0683 -10.7875 -10.9204 -9.79468 -9.94455 -10.9204 -11.0683 -9.94455 -10.0976 -12.0302 -12.1285 -11.0683 -11.2391 -12.1285 -12.187 -11.2391 -11.3273 -11.0683 -11.2391 -10.0976 -10.2388 -11.2391 -11.3273 -10.2388 -10.385 -12.187 -12.3486 -11.3273 -11.2961 -12.3486 -12.4826 -11.2961 -11.4552 -11.3273 -11.2961 -10.385 -10.5477 -11.2961 -11.4552 -10.5477 -10.6631 -12.4826 -12.6