# vtk DataFile Version 3.0
#This file was generated by the deal.II library on 2015/9/1 at 17:12:52
ASCII
DATASET UNSTRUCTURED_GRID

POINTS 3200 double
0 0 0
0.05 0 0
0 0.05 0
0.05 0.05 0
0.05 0 0
0.1 0 0
0.05 0.05 0
0.1 0.05 0
0.1 0 0
0.15 0 0
0.1 0.05 0
0.15 0.05 0
0.15 0 0
0.2 0 0
0.15 0.05 0
0.2 0.05 0
0.2 0 0
0.25 0 0
0.2 0.05 0
0.25 0.05 0
0.25 0 0
0.3 0 0
0.25 0.05 0
0.3 0.05 0
0.3 0 0
0.35 0 0
0.3 0.05 0
0.35 0.05 0
0.35 0 0
0.4 0 0
0.35 0.05 0
0.4 0.05 0
0.4 0 0
0.45 0 0
0.4 0.05 0
0.45 0.05 0
0.45 0 0
0.5 0 0
0.45 0.05 0
0.5 0.05 0
0.5 0 0
0.55 0 0
0.5 0.05 0
0.55 0.05 0
0.55 0 0
0.6 0 0
0.55 0.05 0
0.6 0.05 0
0.6 0 0
0.65 0 0
0.6 0.05 0
0.65 0.05 0
0.65 0 0
0.7 0 0
0.65 0.05 0
0.7 0.05 0
0.7 0 0
0.75 0 0
0.7 0.05 0
0.75 0.05 0
0.75 0 0
0.8 0 0
0.75 0.05 0
0.8 0.05 0
0.8 0 0
0.85 0 0
0.8 0.05 0
0.85 0.05 0
0.85 0 0
0.9 0 0
0.85 0.05 0
0.9 0.05 0
0.9 0 0
0.95 0 0
0.9 0.05 0
0.95 0.05 0
0.95 0 0
1 0 0
0.95 0.05 0
1 0.05 0
1 0 0
1.05 0 0
1 0.05 0
1.05 0.05 0
1.05 0 0
1.1 0 0
1.05 0.05 0
1.1 0.05 0
1.1 0 0
1.15 0 0
1.1 0.05 0
1.15 0.05 0
1.15 0 0
1.2 0 0
1.15 0.05 0
1.2 0.05 0
1.2 0 0
1.25 0 0
1.2 0.05 0
1.25 0.05 0
1.25 0 0
1.3 0 0
1.25 0.05 0
1.3 0.05 0
1.3 0 0
1.35 0 0
1.3 0.05 0
1.35 0.05 0
1.35 0 0
1.4 0 0
1.35 0.05 0
1.4 0.05 0
1.4 0 0
1.45 0 0
1.4 0.05 0
1.45 0.05 0
1.45 0 0
1.5 0 0
1.45 0.05 0
1.5 0.05 0
1.5 0 0
1.55 0 0
1.5 0.05 0
1.55 0.05 0
1.55 0 0
1.6 0 0
1.55 0.05 0
1.6 0.05 0
1.6 0 0
1.65 0 0
1.6 0.05 0
1.65 0.05 0
1.65 0 0
1.7 0 0
1.65 0.05 0
1.7 0.05 0
1.7 0 0
1.75 0 0
1.7 0.05 0
1.75 0.05 0
1.75 0 0
1.8 0 0
1.75 0.05 0
1.8 0.05 0
1.8 0 0
1.85 0 0
1.8 0.05 0
1.85 0.05 0
1.85 0 0
1.9 0 0
1.85 0.05 0
1.9 0.05 0
1.9 0 0
1.95 0 0
1.9 0.05 0
1.95 0.05 0
1.95 0 0
2 0 0
1.95 0.05 0
2 0.05 0
0 0.05 0
0.05 0.05 0
0 0.1 0
0.05 0.1 0
0.05 0.05 0
0.1 0.05 0
0.05 0.1 0
0.1 0.1 0
0.1 0.05 0
0.15 0.05 0
0.1 0.1 0
0.15 0.1 0
0.15 0.05 0
0.2 0.05 0
0.15 0.1 0
0.2 0.1 0
0.2 0.05 0
0.25 0.05 0
0.2 0.1 0
0.25 0.1 0
0.25 0.05 0
0.3 0.05 0
0.25 0.1 0
0.3 0.1 0
0.3 0.05 0
0.35 0.05 0
0.3 0.1 0
0.35 0.1 0
0.35 0.05 0
0.4 0.05 0
0.35 0.1 0
0.4 0.1 0
0.4 0.05 0
0.45 0.05 0
0.4 0.1 0
0.45 0.1 0
0.45 0.05 0
0.5 0.05 0
0.45 0.1 0
0.5 0.1 0
0.5 0.05 0
0.55 0.05 0
0.5 0.1 0
0.55 0.1 0
0.55 0.05 0
0.6 0.05 0
0.55 0.1 0
0.6 0.1 0
0.6 0.05 0
0.65 0.05 0
0.6 0.1 0
0.65 0.1 0
0.65 0.05 0
0.7 0.05 0
0.65 0.1 0
0.7 0.1 0
0.7 0.05 0
0.75 0.05 0
0.7 0.1 0
0.75 0.1 0
0.75 0.05 0
0.8 0.05 0
0.75 0.1 0
0.8 0.1 0
0.8 0.05 0
0.85 0.05 0
0.8 0.1 0
0.85 0.1 0
0.85 0.05 0
0.9 0.05 0
0.85 0.1 0
0.9 0.1 0
0.9 0.05 0
0.95 0.05 0
0.9 0.1 0
0.95 0.1 0
0.95 0.05 0
1 0.05 0
0.95 0.1 0
1 0.1 0
1 0.05 0
1.05 0.05 0
1 0.1 0
1.05 0.1 0
1.05 0.05 0
1.1 0.05 0
1.05 0.1 0
1.1 0.1 0
1.1 0.05 0
1.15 0.05 0
1.1 0.1 0
1.15 0.1 0
1.15 0.05 0
1.2 0.05 0
1.15 0.1 0
1.2 0.1 0
1.2 0.05 0
1.25 0.05 0
1.2 0.1 0
1.25 0.1 0
1.25 0.05 0
1.3 0.05 0
1.25 0.1 0
1.3 0.1 0
1.3 0.05 0
1.35 0.05 0
1.3 0.1 0
1.35 0.1 0
1.35 0.05 0
1.4 0.05 0
1.35 0.1 0
1.4 0.1 0
1.4 0.05 0
1.45 0.05 0
1.4 0.1 0
1.45 0.1 0
1.45 0.05 0
1.5 0.05 0
1.45 0.1 0
1.5 0.1 0
1.5 0.05 0
1.55 0.05 0
1.5 0.1 0
1.55 0.1 0
1.55 0.05 0
1.6 0.05 0
1.55 0.1 0
1.6 0.1 0
1.6 0.05 0
1.65 0.05 0
1.6 0.1 0
1.65 0.1 0
1.65 0.05 0
1.7 0.05 0
1.65 0.1 0
1.7 0.1 0
1.7 0.05 0
1.75 0.05 0
1.7 0.1 0
1.75 0.1 0
1.75 0.05 0
1.8 0.05 0
1.75 0.1 0
1.8 0.1 0
1.8 0.05 0
1.85 0.05 0
1.8 0.1 0
1.85 0.1 0
1.85 0.05 0
1.9 0.05 0
1.85 0.1 0
1.9 0.1 0
1.9 0.05 0
1.95 0.05 0
1.9 0.1 0
1.95 0.1 0
1.95 0.05 0
2 0.05 0
1.95 0.1 0
2 0.1 0
0 0.1 0
0.05 0.1 0
0 0.15 0
0.05 0.15 0
0.05 0.1 0
0.1 0.1 0
0.05 0.15 0
0.1 0.15 0
0.1 0.1 0
0.15 0.1 0
0.1 0.15 0
0.15 0.15 0
0.15 0.1 0
0.2 0.1 0
0.15 0.15 0
0.2 0.15 0
0.2 0.1 0
0.25 0.1 0
0.2 0.15 0
0.25 0.15 0
0.25 0.1 0
0.3 0.1 0
0.25 0.15 0
0.3 0.15 0
0.3 0.1 0
0.35 0.1 0
0.3 0.15 0
0.35 0.15 0
0.35 0.1 0
0.4 0.1 0
0.35 0.15 0
0.4 0.15 0
0.4 0.1 0
0.45 0.1 0
0.4 0.15 0
0.45 0.15 0
0.45 0.1 0
0.5 0.1 0
0.45 0.15 0
0.5 0.15 0
0.5 0.1 0
0.55 0.1 0
0.5 0.15 0
0.55 0.15 0
0.55 0.1 0
0.6 0.1 0
0.55 0.15 0
0.6 0.15 0
0.6 0.1 0
0.65 0.1 0
0.6 0.15 0
0.65 0.15 0
0.65 0.1 0
0.7 0.1 0
0.65 0.15 0
0.7 0.15 0
0.7 0.1 0
0.75 0.1 0
0.7 0.15 0
0.75 0.15 0
0.75 0.1 0
0.8 0.1 0
0.75 0.15 0
0.8 0.15 0
0.8 0.1 0
0.85 0.1 0
0.8 0.15 0
0.85 0.15 0
0.85 0.1 0
0.9 0.1 0
0.85 0.15 0
0.9 0.15 0
0.9 0.1 0
0.95 0.1 0
0.9 0.15 0
0.95 0.15 0
0.95 0.1 0
1 0.1 0
0.95 0.15 0
1 0.15 0
1 0.1 0
1.05 0.1 0
1 0.15 0
1.05 0.15 0
1.05 0.1 0
1.1 0.1 0
1.05 0.15 0
1.1 0.15 0
1.1 0.1 0
1.15 0.1 0
1.1 0.15 0
1.15 0.15 0
1.15 0.1 0
1.2 0.1 0
1.15 0.15 0
1.2 0.15 0
1.2 0.1 0
1.25 0.1 0
1.2 0.15 0
1.25 0.15 0
1.25 0.1 0
1.3 0.1 0
1.25 0.15 0
1.3 0.15 0
1.3 0.1 0
1.35 0.1 0
1.3 0.15 0
1.35 0.15 0
1.35 0.1 0
1.4 0.1 0
1.35 0.15 0
1.4 0.15 0
1.4 0.1 0
1.45 0.1 0
1.4 0.15 0
1.45 0.15 0
1.45 0.1 0
1.5 0.1 0
1.45 0.15 0
1.5 0.15 0
1.5 0.1 0
1.55 0.1 0
1.5 0.15 0
1.55 0.15 0
1.55 0.1 0
1.6 0.1 0
1.55 0.15 0
1.6 0.15 0
1.6 0.1 0
1.65 0.1 0
1.6 0.15 0
1.65 0.15 0
1.65 0.1 0
1.7 0.1 0
1.65 0.15 0
1.7 0.15 0
1.7 0.1 0
1.75 0.1 0
1.7 0.15 0
1.75 0.15 0
1.75 0.1 0
1.8 0.1 0
1.75 0.15 0
1.8 0.15 0
1.8 0.1 0
1.85 0.1 0
1.8 0.15 0
1.85 0.15 0
1.85 0.1 0
1.9 0.1 0
1.85 0.15 0
1.9 0.15 0
1.9 0.1 0
1.95 0.1 0
1.9 0.15 0
1.95 0.15 0
1.95 0.1 0
2 0.1 0
1.95 0.15 0
2 0.15 0
0 0.15 0
0.05 0.15 0
0 0.2 0
0.05 0.2 0
0.05 0.15 0
0.1 0.15 0
0.05 0.2 0
0.1 0.2 0
0.1 0.15 0
0.15 0.15 0
0.1 0.2 0
0.15 0.2 0
0.15 0.15 0
0.2 0.15 0
0.15 0.2 0
0.2 0.2 0
0.2 0.15 0
0.25 0.15 0
0.2 0.2 0
0.25 0.2 0
0.25 0.15 0
0.3 0.15 0
0.25 0.2 0
0.3 0.2 0
0.3 0.15 0
0.35 0.15 0
0.3 0.2 0
0.35 0.2 0
0.35 0.15 0
0.4 0.15 0
0.35 0.2 0
0.4 0.2 0
0.4 0.15 0
0.45 0.15 0
0.4 0.2 0
0.45 0.2 0
0.45 0.15 0
0.5 0.15 0
0.45 0.2 0
0.5 0.2 0
0.5 0.15 0
0.55 0.15 0
0.5 0.2 0
0.55 0.2 0
0.55 0.15 0
0.6 0.15 0
0.55 0.2 0
0.6 0.2 0
0.6 0.15 0
0.65 0.15 0
0.6 0.2 0
0.65 0.2 0
0.65 0.15 0
0.7 0.15 0
0.65 0.2 0
0.7 0.2 0
0.7 0.15 0
0.75 0.15 0
0.7 0.2 0
0.75 0.2 0
0.75 0.15 0
0.8 0.15 0
0.75 0.2 0
0.8 0.2 0
0.8 0.15 0
0.85 0.15 0
0.8 0.2 0
0.85 0.2 0
0.85 0.15 0
0.9 0.15 0
0.85 0.2 0
0.9 0.2 0
0.9 0.15 0
0.95 0.15 0
0.9 0.2 0
0.95 0.2 0
0.95 0.15 0
1 0.15 0
0.95 0.2 0
1 0.2 0
1 0.15 0
1.05 0.15 0
1 0.2 0
1.05 0.2 0
1.05 0.15 0
1.1 0.15 0
1.05 0.2 0
1.1 0.2 0
1.1 0.15 0
1.15 0.15 0
1.1 0.2 0
1.15 0.2 0
1.15 0.15 0
1.2 0.15 0
1.15 0.2 0
1.2 0.2 0
1.2 0.15 0
1.25 0.15 0
1.2 0.2 0
1.25 0.2 0
1.25 0.15 0
1.3 0.15 0
1.25 0.2 0
1.3 0.2 0
1.3 0.15 0
1.35 0.15 0
1.3 0.2 0
1.35 0.2 0
1.35 0.15 0
1.4 0.15 0
1.35 0.2 0
1.4 0.2 0
1.4 0.15 0
1.45 0.15 0
1.4 0.2 0
1.45 0.2 0
1.45 0.15 0
1.5 0.15 0
1.45 0.2 0
1.5 0.2 0
1.5 0.15 0
1.55 0.15 0
1.5 0.2 0
1.55 0.2 0
1.55 0.15 0
1.6 0.15 0
1.55 0.2 0
1.6 0.2 0
1.6 0.15 0
1.65 0.15 0
1.6 0.2 0
1.65 0.2 0
1.65 0.15 0
1.7 0.15 0
1.65 0.2 0
1.7 0.2 0
1.7 0.15 0
1.75 0.15 0
1.7 0.2 0
1.75 0.2 0
1.75 0.15 0
1.8 0.15 0
1.75 0.2 0
1.8 0.2 0
1.8 0.15 0
1.85 0.15 0
1.8 0.2 0
1.85 0.2 0
1.85 0.15 0
1.9 0.15 0
1.85 0.2 0
1.9 0.2 0
1.9 0.15 0
1.95 0.15 0
1.9 0.2 0
1.95 0.2 0
1.95 0.15 0
2 0.15 0
1.95 0.2 0
2 0.2 0
0 0.2 0
0.05 0.2 0
0 0.25 0
0.05 0.25 0
0.05 0.2 0
0.1 0.2 0
0.05 0.25 0
0.1 0.25 0
0.1 0.2 0
0.15 0.2 0
0.1 0.25 0
0.15 0.25 0
0.15 0.2 0
0.2 0.2 0
0.15 0.25 0
0.2 0.25 0
0.2 0.2 0
0.25 0.2 0
0.2 0.25 0
0.25 0.25 0
0.25 0.2 0
0.3 0.2 0
0.25 0.25 0
0.3 0.25 0
0.3 0.2 0
0.35 0.2 0
0.3 0.25 0
0.35 0.25 0
0.35 0.2 0
0.4 0.2 0
0.35 0.25 0
0.4 0.25 0
0.4 0.2 0
0.45 0.2 0
0.4 0.25 0
0.45 0.25 0
0.45 0.2 0
0.5 0.2 0
0.45 0.25 0
0.5 0.25 0
0.5 0.2 0
0.55 0.2 0
0.5 0.25 0
0.55 0.25 0
0.55 0.2 0
0.6 0.2 0
0.55 0.25 0
0.6 0.25 0
0.6 0.2 0
0.65 0.2 0
0.6 0.25 0
0.65 0.25 0
0.65 0.2 0
0.7 0.2 0
0.65 0.25 0
0.7 0.25 0
0.7 0.2 0
0.75 0.2 0
0.7 0.25 0
0.75 0.25 0
0.75 0.2 0
0.8 0.2 0
0.75 0.25 0
0.8 0.25 0
0.8 0.2 0
0.85 0.2 0
0.8 0.25 0
0.85 0.25 0
0.85 0.2 0
0.9 0.2 0
0.85 0.25 0
0.9 0.25 0
0.9 0.2 0
0.95 0.2 0
0.9 0.25 0
0.95 0.25 0
0.95 0.2 0
1 0.2 0
0.95 0.25 0
1 0.25 0
1 0.2 0
1.05 0.2 0
1 0.25 0
1.05 0.25 0
1.05 0.2 0
1.1 0.2 0
1.05 0.25 0
1.1 0.25 0
1.1 0.2 0
1.15 0.2 0
1.1 0.25 0
1.15 0.25 0
1.15 0.2 0
1.2 0.2 0
1.15 0.25 0
1.2 0.25 0
1.2 0.2 0
1.25 0.2 0
1.2 0.25 0
1.25 0.25 0
1.25 0.2 0
1.3 0.2 0
1.25 0.25 0
1.3 0.25 0
1.3 0.2 0
1.35 0.2 0
1.3 0.25 0
1.35 0.25 0
1.35 0.2 0
1.4 0.2 0
1.35 0.25 0
1.4 0.25 0
1.4 0.2 0
1.45 0.2 0
1.4 0.25 0
1.45 0.25 0
1.45 0.2 0
1.5 0.2 0
1.45 0.25 0
1.5 0.25 0
1.5 0.2 0
1.55 0.2 0
1.5 0.25 0
1.55 0.25 0
1.55 0.2 0
1.6 0.2 0
1.55 0.25 0
1.6 0.25 0
1.6 0.2 0
1.65 0.2 0
1.6 0.25 0
1.65 0.25 0
1.65 0.2 0
1.7 0.2 0
1.65 0.25 0
1.7 0.25 0
1.7 0.2 0
1.75 0.2 0
1.7 0.25 0
1.75 0.25 0
1.75 0.2 0
1.8 0.2 0
1.75 0.25 0
1.8 0.25 0
1.8 0.2 0
1.85 0.2 0
1.8 0.25 0
1.85 0.25 0
1.85 0.2 0
1.9 0.2 0
1.85 0.25 0
1.9 0.25 0
1.9 0.2 0
1.95 0.2 0
1.9 0.25 0
1.95 0.25 0
1.95 0.2 0
2 0.2 0
1.95 0.25 0
2 0.25 0
0 0.25 0
0.05 0.25 0
0 0.3 0
0.05 0.3 0
0.05 0.25 0
0.1 0.25 0
0.05 0.3 0
0.1 0.3 0
0.1 0.25 0
0.15 0.25 0
0.1 0.3 0
0.15 0.3 0
0.15 0.25 0
0.2 0.25 0
0.15 0.3 0
0.2 0.3 0
0.2 0.25 0
0.25 0.25 0
0.2 0.3 0
0.25 0.3 0
0.25 0.25 0
0.3 0.25 0
0.25 0.3 0
0.3 0.3 0
0.3 0.25 0
0.35 0.25 0
0.3 0.3 0
0.35 0.3 0
0.35 0.25 0
0.4 0.25 0
0.35 0.3 0
0.4 0.3 0
0.4 0.25 0
0.45 0.25 0
0.4 0.3 0
0.45 0.3 0
0.45 0.25 0
0.5 0.25 0
0.45 0.3 0
0.5 0.3 0
0.5 0.25 0
0.55 0.25 0
0.5 0.3 0
0.55 0.3 0
0.55 0.25 0
0.6 0.25 0
0.55 0.3 0
0.6 0.3 0
0.6 0.25 0
0.65 0.25 0
0.6 0.3 0
0.65 0.3 0
0.65 0.25 0
0.7 0.25 0
0.65 0.3 0
0.7 0.3 0
0.7 0.25 0
0.75 0.25 0
0.7 0.3 0
0.75 0.3 0
0.75 0.25 0
0.8 0.25 0
0.75 0.3 0
0.8 0.3 0
0.8 0.25 0
0.85 0.25 0
0.8 0.3 0
0.85 0.3 0
0.85 0.25 0
0.9 0.25 0
0.85 0.3 0
0.9 0.3 0
0.9 0.25 0
0.95 0.25 0
0.9 0.3 0
0.95 0.3 0
0.95 0.25 0
1 0.25 0
0.95 0.3 0
1 0.3 0
1 0.25 0
1.05 0.25 0
1 0.3 0
1.05 0.3 0
1.05 0.25 0
1.1 0.25 0
1.05 0.3 0
1.1 0.3 0
1.1 0.25 0
1.15 0.25 0
1.1 0.3 0
1.15 0.3 0
1.15 0.25 0
1.2 0.25 0
1.15 0.3 0
1.2 0.3 0
1.2 0.25 0
1.25 0.25 0
1.2 0.3 0
1.25 0.3 0
1.25 0.25 0
1.3 0.25 0
1.25 0.3 0
1.3 0.3 0
1.3 0.25 0
1.35 0.25 0
1.3 0.3 0
1.35 0.3 0
1.35 0.25 0
1.4 0.25 0
1.35 0.3 0
1.4 0.3 0
1.4 0.25 0
1.45 0.25 0
1.4 0.3 0
1.45 0.3 0
1.45 0.25 0
1.5 0.25 0
[...]
POINT_DATA 3200
SCALARS x_displacement double 1
LOOKUP_TABLE default
0 -2.29504 0 -0.963775 -2.29504 -4.02437 -0.963775 -2.07285 -4.02437 -5.34369 -2.07285 -3.10088 -5.34369 -6.39012 -3.10088 -4.04117 -6.39012 -7.28141 -4.04117 -4.8993 -7.28141 -8.0936 -4.8993 -5.69567 -8.0936 -8.86473 -5.69567 -6.45384 -8.86473 -9.61416 -6.45384 -7.19285 -9.61416 -10.3544 -7.19285 -7.92504 -10.3544 -11.0949 -7.92504 -8.65684 -11.0949 -11.8429 -8.65684 -9.38999 -11.8429 -12.6049 -9.38999 -10.122 -12.6049 -13.3875 -10.122 -10.847 -13.3875 -14.1977 -10.847 -11.5654 -14.1977 -15.0407 -11.5654 -12.2964 -15.0407 -15.9164 -12.2964 -13.0492 -15.9164 -16.8189 -13.0492 -13.8187 -16.8189 -17.7384 -13.8187 -14.5963 -17.7384 -18.6622 -14.5963 -15.3738 -18.6622 -19.5743 -15.3738 -16.1414 -19.5743 -20.4555 -16.1414 -16.8878 -20.4555 -21.283 -16.8878 -17.6029 -21.283 -22.0304 -17.6029 -18.2761 -22.0304 -22.6752 -18.2761 -18.8926 -22.6752 -23.2371 -18.8926 -19.468 -23.2371 -23.8007 -19.468 -20.0643 -23.8007 -24.4093 -20.0643 -20.7153 -24.4093 -25.0712 -20.7153 -21.4317 -25.0712 -25.7807 -21.4317 -22.2106 -25.7807 -26.5137 -22.2106 -23.0294 -26.5137 -27.2275 -23.0294 -23.8432 -27.2275 -27.8749 -23.8432 -24.6063 -27.8749 -28.4462 -24.6063 -25.261 -28.4462 -28.9574 -25.261 -25.7685 -28.9574 -29.3725 -25.7685 -26.1804 -29.3725 -30.0617 -26.1804 -26.5181 -30.0617 -30.5289 -26.5181 -26.7045 -30.5289 -30.6236 -26.7045 -26.8677 -30.6236 -30.6023 -26.8677 -26.9423 -30.6023 -30.5893 -26.9423 -26.9567 0 -0.963775 0 -0.00473238 -0.963775 -2.07285 -0.00473238 -0.444267 -2.07285 -3.10088 -0.444267 -1.18718 -3.10088 -4.04117 -1.18718 -1.97184 -4.04117 -4.8993 -1.97184 -2.71402 -4.8993 -5.69567 -2.71402 -3.41859 -5.69567 -6.45384 -3.41859 -4.11154 -6.45384 -7.19285 -4.11154 -4.80835 -7.19285 -7.92504 -4.80835 -5.51435 -7.92504 -8.65684 -5.51435 -6.22964 -8.65684 -9.38999 -6.22964 -6.94869 -9.38999 -10.122 -6.94869 -7.66058 -10.122 -10.847 -7.66058 -8.34701 -10.847 -11.5654 -8.34701 -8.99852 -11.5654 -12.2964 -8.99852 -9.64079 -12.2964 -13.0492 -9.64079 -10.291 -13.0492 -13.8187 -10.291 -10.9487 -13.8187 -14.5963 -10.9487 -11.6081 -14.5963 -15.3738 -11.6081 -12.2636 -15.3738 -16.1414 -12.2636 -12.9108 -16.1414 -16.8878 -12.9108 -13.5479 -16.8878 -17.6029 -13.5479 -14.1747 -17.6029 -18.2761 -14.1747 -14.7912 -18.2761 -18.8926 -14.7912 -15.3961 -18.8926 -19.468 -15.3961 -16.0002 -19.468 -20.0643 -16.0002 -16.6212 -20.0643 -20.7153 -16.6212 -17.2772 -20.7153 -21.4317 -17.2772 -17.9816 -21.4317 -22.2106 -17.9816 -18.7354 -22.2106 -23.0294 -18.7354 -19.5265 -23.0294 -23.8432 -19.5265 -20.333 -23.8432 -24.6063 -20.333 -21.0963 -24.6063 -25.261 -21.0963 -21.773 -25.261 -25.7685 -21.773 -22.3431 -25.7685 -26.1804 -22.3431 -22.7673 -26.1804 -26.5181 -22.7673 -23.0564 -26.5181 -26.7045 -23.0564 -23.2949 -26.7045 -26.8677 -23.2949 -23.4289 -26.8677 -26.9423 -23.4289 -23.4271 -26.9423 -26.9567 -23.4271 -23.4328 0 -0.00473238 0 0.649847 -0.00473238 -0.444267 0.649847 0.668372 -0.444267 -1.18718 0.668372 0.165731 -1.18718 -1.97184 0.165731 -0.413734 -1.97184 -2.71402 -0.413734 -0.965619 -2.71402 -3.41859 -0.965619 -1.5206 -3.41859 -4.11154 -1.5206 -2.11012 -4.11154 -4.80835 -2.11012 -2.74804 -4.80835 -5.51435 -2.74804 -3.4328 -5.51435 -6.22964 -3.4328 -4.15531 -6.22964 -6.94869 -4.15531 -4.90426 -6.94869 -7.66058 -4.90426 -5.66384 -7.66058 -8.34701 -5.66384 -6.40865 -8.34701 -8.99852 -6.40865 -7.1175 -8.99852 -9.64079 -7.1175 -7.79191 -9.64079 -10.291 -7.79191 -8.43551 -10.291 -10.9487 -8.43551 -9.04335 -10.9487 -11.6081 -9.04335 -9.60753 -11.6081 -12.2636 -9.60753 -10.124 -12.2636 -12.9108 -10.124 -10.5933 -12.9108 -13.5479 -10.5933 -11.0212 -13.5479 -14.1747 -11.0212 -11.4221 -14.1747 -14.7912 -11.4221 -11.8213 -14.7912 -15.3961 -11.8213 -12.2493 -15.3961 -16.0002 -12.2493 -12.7239 -16.0002 -16.6212 -12.7239 -13.2528 -16.6212 -17.2772 -13.2528 -13.8447 -17.2772 -17.9816 -13.8447 -14.506 -17.9816 -18.7354 -14.506 -15.2316 -18.7354 -19.5265 -15.2316 -15.9977 -19.5265 -20.333 -15.9977 -16.7768 -20.333 -21.0963 -16.7768 -17.5396 -21.0963 -21.773 -17.5396 -18.2408 -21.773 -22.3431 -18.2408 -18.828 -22.3431 -22.7673 -18.828 -19.2971 -22.7673 -23.0564 -19.2971 -19.6418 -23.0564 -23.2949 -19.6418 -19.8541 -23.2949 -23.4289 -19.8541 -19.9936 -23.4289 -23.4271 -19.9936 -20.1184 -23.4271 -23.4328 -20.1184 -20.0725 0 0.649847 0 0.91178 0.649847 0.668372 0.91178 1.1814 0.668372 0.165731 1.1814 0.888241 0.165731 -0.413734 0.888241 0.497739 -0.413734 -0.965619 0.497739 0.0630783 -0.965619 -1.5206 0.0630783 -0.429892 -1.5206 -2.11012 -0.429892 -0.993667 -2.11012 -2.74804 -0.993667 -1.64136 -2.74804 -3.4328 -1.64136 -2.3705 -3.4328 -4.15531 -2.3705 -3.15914 -4.15531 -4.90426 -3.15914 -3.97234 -4.90426 -5.66384 -3.97234 -4.77136 -5.66384 -6.40865 -4.77136 -5.5226 -6.40865 -7.1175 -5.5226 -6.20555 -7.1175 -7.79191 -6.20555 -6.81251 -7.79191 -8.43551 -6.81251 -7.34488 -8.43551 -9.04335 -7.34488 -7.80847 -9.04335 -9.60753 -7.80847 -8.20834 -9.60753 -10.124 -8.20834 -8.54557 -10.124 -10.5933 -8.54557 -8.82439 -10.5933 -11.0212 -8.82439 -9.05717 -11.0212 -11.4221 -9.05717 -9.26127 -11.4221 -11.8213 -9.26127 -9.45562 -11.8213 -12.2493 -9.45562 -9.66042 -12.2493 -12.7239 -9.66042 -9.89799 -12.7239 -13.2528 -9.89799 -10.1962 -13.2528 -13.8447 -10.1962 -10.5901 -13.8447 -14.506 -10.5901 -11.1096 -14.506 -15.2316 -11.1096 -11.7521 -15.2316 -15.9977 -11.7521 -12.4759 -15.9977 -16.7768 -12.4759 -13.2344 -16.7768 -17.5396 -13.2344 -13.984 -17.5396 -18.2408 -13.984 -14.6928 -18.2408 -18.828 -14.6928 -15.3254 -18.828 -19.2971 -15.3254 -15.8471 -19.2971 -19.6418 -15.8471 -16.2377 -19.6418 -19.8541 -16.2377 -16.5086 -19.8541 -19.9936 -16.5086 -16.6901 -19.9936 -20.1184 -16.6901 -16.8029 -20.1184 -20.0725 -16.8029 -16.8032 0 0.91178 0 1.2824 0.91178 1.1814 1.2824 1.74454 1.1814 0.888241 1.74454 1.52549 0.888241 0.497739 1.52549 1.1684 0.497739 0.0630783 1.1684 0.7514 0.0630783 -0.429892 0.7514 0.267034 -0.429892 -0.993667 0.267034 -0.287536 -0.993667 -1.64136 -0.287536 -0.910355 -1.64136 -2.3705 -0.910355 -1.59518 -2.3705 -3.15914 -1.59518 -2.32039 -3.15914 -3.97234 -2.32039 -3.04822 -3.97234 -4.77136 -3.04822 -3.74619 -4.77136 -5.5226 -3.74619 -4.39429 -5.5226 -6.20555 -4.39429 -4.98049 -6.20555 -6.81251 -4.98049 -5.49682 -6.81251 -7.34488 -5.49682 -5.94261 -7.34488 -7.80847 -5.94261 -6.31991 -7.80847 -8.20834 -6.31991 -6.63061 -8.20834 -8.54557 -6.63061 -6.87954 -8.54557 -8.82439 -6.87954 -7.07665 -8.82439 -9.05717 -7.07665 -7.23537 -9.05717 -9.26127 -7.23537 -7.37101 -9.26127 -9.45562 -7.37101 -7.49787 -9.45562 -9.66042 -7.49787 -7.62491 -9.66042 -9.89799 -7.62491 -7.75431 -9.89799 -10.1962 -7.75431 -7.88418 -10.1962 -10.5901 -7.88418 -8.02056 -10.5901 -11.1096 -8.02056 -8.20476 -11.1096 -11.7521 -8.20476 -8.52608 -11.7521 -12.4759 -8.52608 -9.04632 -12.4759 -13.2344 -9.04632 -9.71431 -13.2344 -13.984 -9.71431 -10.4471 -13.984 -14.6928 -10.4471 -11.1899 -14.6928 -15.3254 -11.1899 -11.8738 -15.3254 -15.8471 -11.8738 -12.4593 -15.8471 -16.2377 -12.4593 -12.9272 -16.2377 -16.5086 -12.9272 -13.2649 -16.5086 -16.6901 -13.2649 -13.4833 -16.6901 -16.8029 -13.4833 -13.643 -16.8029 -16.8032 -13.643 -13.8946 0 1.2824 0 1.50548 1.2824 1.74454 1.50548 2.24678 1.74454 1.52549 2.24678 1.90945 1.52549 1.1684 1.90945 1.53044 1.1684 0.7514 1.53044 1.13791 0.7514 0.267034 1.13791 0.705575 0.267034 -0.287536 0.705575 0.227207 -0.287536 -0.910355 0.227207 -0.299741 -0.910355 -1.59518 -0.299741 -0.871886 -1.59518 -2.32039 -0.871886 -1.47307 -2.32039 -3.04822 -1.47307 -2.07894 -3.04822 -3.74619 -2.07894 -2.66232 -3.74619 -4.39429 -2.66232 -3.20382 -4.39429 -4.98049 -3.20382 -3.69386 -4.98049 -5.49682 -3.69386 -4.12893 -5.49682 -5.94261 -4.12893 -4.50482 -5.94261 -6.31991 -4.50482 -4.81865 -6.31991 -6.63061 -4.81865 -5.07331 -6.63061 -6.87954 -5.07331 -5.27314 -6.87954 -7.07665 -5.27314 -5.42493 -7.07665 -7.23537 -5.42493 -5.53983 -7.23537 -7.37101 -5.53983 -5.63258 -7.37101 -7.49787 -5.63258 -5.71785 -7.49787 -7.62491 -5.71785 -5.80619 -7.62491 -7.75431 -5.80619 -5.90127 -7.75431 -7.88418 -5.90127 -5.99935 -7.88418 -8.02056 -5.99935 -6.0901 -8.02056 -8.20476 -6.0901 -6.15786 -8.20476 -8.52608 -6.15786 -6.19589 -8.52608 -9.04632 -6.19589 -6.26559 -9.04632 -9.71431 -6.26559 -6.52973 -9.71431 -10.4471 -6.52973 -7.06237 -10.4471 -11.1899 -7.06237 -7.75331 -11.1899 -11.8738 -7.75331 -8.49606 -11.8738 -12.4593 -8.49606 -9.17405 -12.4593 -12.9272 -9.17405 -9.72241 -12.9272 -13.2649 -9.72241 -10.1382 -13.2649 -13.4833 -10.1382 -10.4542 -13.4833 -13.643 -10.4542 -10.6761 -13.643 -13.8946 -10.6761 -10.8714 0 1.50548 0 1.99886 1.50548 2.24678 1.99886 2.36699 2.24678 1.90945 2.36699 1.89428 1.90945 1.53044 1.89428 1.60173 1.53044 1.13791 1.60173 1.32222 1.13791 0.705575 1.32222 1.00976 0.705575 0.227207 1.00976 0.650175 0.227207 -0.299741 0.650175 0.242289 -0.299741 -0.871886 0.242289 -0.206465 -0.871886 -1.47307 -0.206465 -0.682521 -1.47307 -2.07894 -0.682521 -1.16548 -2.07894 -2.66232 -1.16548 -1.63284 -2.66232 -3.20382 -1.63284 -2.06929 -3.20382 -3.69386 -2.06929 -2.46752 -3.69386 -4.12893 -2.46752 -2.82335 -4.12893 -4.50482 -2.82335 -3.13381 -4.50482 -4.81865 -3.13381 -3.39553 -4.81865 -5.07331 -3.39553 -3.60537 -5.07331 -5.27314 -3.60537 -3.76568 -5.27314 -5.42493 -3.76568 -3.8829 -5.42493 -5.53983 -3.8829 -3.96645 -5.53983 -5.63258 -3.96645 -4.02831 -5.63258 -5.71785 -4.02831 -4.08143 -5.71785 -5.80619 -4.08143 -4.13705 -5.80619 -5.90127 -4.13705 -4.20215 -5.90127 -5.99935 -4.20215 -4.27782 -5.99935 -6.0901 -4.27782 -4.35861 -6.0901 -6.15786 -4.35861 -4.43264 -6.15786 -6.19589 -4.43264 -4.48303 -6.19589 -6.26559 -4.48303 -4.48912 -6.26559 -6.52973 -4.48912 -4.44509 -6.52973 -7.06237 -4.44509 -4.44997 -7.06237 -7.75331 -4.44997 -4.72114 -7.75331 -8.49606 -4.72114 -5.28718 -8.49606 -9.17405 -5.28718 -5.97775 -9.17405 -9.72241 -5.97775 -6.63176 -9.72241 -10.1382 -6.63176 -7.15013 -10.1382 -10.4542 -7.15013 -7.52898 -10.4542 -10.6761 -7.52898 -7.81287 -10.6761 -10.8714 -7.81287 -8.08653 0 1.99886 0 2.73097 1.99886 2.36699 2.73097 2.14802 2.36699 1.89428 2.14802 1.83703 1.89428 1.60173 1.83703 1.64135 1.60173 1.32222 1.64135 1.45475 1.32222 1.00976 1.45475 1.23423 1.00976 0.650175 1.23423 0.967166 0.650175 0.242289 0.967166 0.654681 0.242289 -0.206465 0.654681 0.30744 -0.206465 -0.682521 0.30744 -0.0588239 -0.682521 -1.16548 -0.0588239 -0.42785 -1.16548 -1.63284 -0.42785 -0.785123 -1.63284 -2.06929 -0.785123 -1.11851 -2.06929 -2.46752 -1.11851 -1.42084 -2.46752 -2.82335 -1.42084 -1.68945 -2.82335 -3.13381 -1.68945 -1.92305 -3.13381 -3.39553 -1.92305 -2.11962 -3.39553 -3.60537 -2.11962 -2.27696 -3.60537 -3.76568 -2.27696 -2.39531 -3.76568 -3.8829 -2.39531 -2.47914 -3.8829 -3.96645 -2.47914 -2.53607 -3.96645 -4.02831 -2.53607 -2.57524 -4.02831 -4.08143 -2.57524 -2.60642 -4.08143 -4.13705 -2.60642 -2.63882 -4.13705 -4.20215 -2.63882 -2.67925 -4.20215 -4.27782 -2.67925 -2.73037 -4.27782 -4.35861 -2.73037 -2.79008 -4.35861 -4.43264 -2.79008 -2.85218 -4.43264 -4.48303 -2.85218 -2.90651 -4.48303 -4.48912 -2.90651 -2.93878 -4.48912 -4.44509 -2.93878 -2.93691 -4.44509 -4.44997 -2.93691 -2.89735 -4.44997 -4.72114 -2.89735 -2.83619 -4.72114 -5.28718 -2.83619 -2.8703 -5.28718 -5.97775 -2.8703 -3.17815 -5.97775 -6.63176 -3.17815 -3.71436 -6.63176 -7.15013 -3.71436 -4.26579 -7.15013 -7.52898 -4.26579 -4.74666 -7.52898 -7.81287 -4.74666 -5.10519 -7.81287 -8.08653 -5.10519 -5.37257 0 2.73097 0 2.51005 2.73097 2.14802 2.51005 1.79552 2.14802 1.83703 1.79552 1.55448 1.83703 1.64135 1.55448 1.40619 1.64135 1.45475 1.40619 1.25431 1.45475 1.23423 1.25431 1.07355 1.23423 0.967166 1.07355 0.867398 0.967166 0.654681 0.867398 0.64549 0.654681 0.30744 0.64549 0.415475 0.30744 -0.0588239 0.415475 0.184731 -0.0588239 -0.42785 0.184731 -0.039537 -0.42785 -0.785123 -0.039537 -0.251146 -0.785123 -1.11851 -0.251146 -0.445055 -1.11851 -1.42084 -0.445055 -0.618034 -1.42084 -1.68945 -0.618034 -0.769195 -1.68945 -1.92305 -0.769195 -0.898806 -1.92305 -2.11962 -0.898806 -1.00695 -2.11962 -2.27696 -1.00695 -1.09321 -2.27696 -2.39531 -1.09321 -1.1576 -2.39531 -2.47914 -1.1576 -1.20223 -2.47914 -2.53607 -1.20223 -1.23149 -2.53607 -2.57524 -1.23149 -1.25078 -2.57524 -2.60642 -1.25078 -1.2656 -2.60642 -2.63882 -1.2656 -1.28113 -2.63882 -2.67925 -1.28113 -1.30143 -2.67925 -2.73037 -1.30143 -1.32836 -2.73037 -2.79008 -1.32836 -1.36105 -2.79008 -2.85218 -1.36105 -1.39625 -2.85218 -2.90651 -1.39625 -1.42907 -2.90651 -2.93878 -1.42907 -1.4538 -2.93878 -2.93691 -1.4538 -1.46358 -2.93691 -2.89735 -1.46358 -1.45235 -2.89735 -2.83619 -1.45235 -1.42869 -2.83619 -2.8703 -1.42869 -1.41185 -2.8703 -3.17815 -1.41185 -1.41428 -3.17815 -3.71436 -1.41428 -1.49577 -3.71436 -4.26579 -1.49577 -1.76797 -4.26579 -4.74666 -1.76797 -2.14881 -4.74666 -5.10519 -2.14881 -2.64767 -5.10519 -5.37257 -2.64767 -2.7468 0 2.51005 0 1.25579e-09 2.51005 1.79552 1.25579e-09 2.7079e-10 1.79552 1.55448 2.7079e-10 -3.43796e-12 1.55448 1.40619 -3.43796e-12 -1.3807e-11 1.40619 1.25431 -1.3807e-11 -1.67057e-11 1.25431 1.07355 -1.67057e-11 -1.40489e-11 1.07355 0.867398 -1.40489e-11 -1.26924e-11 0.867398 0.64549 -1.26924e-11 -1.21252e-11 0.64549 0.415475 -1.21252e-11 -9.15568e-12 0.415475 0.184731 -9.15568e-12 -5.75396e-12 0.184731 -0.039537 -5.75396e-12 -3.10704e-12 -0.039537 -0.251146 -3.10704e-12 -7.46887e-13 -0.251146 -0.445055 -7.46887e-13 -3.28008e-13 -0.445055 -0.618034 -3.28008e-13 1.04485e-12 -0.618034 -0.769195 1.04485e-12 6.60183e-13 -0.769195 -0.898806 6.60183e-13 -6.21147e-13 -0.898806 -1.00695 -6.21147e-13 -9.22742e-13 -1.00695 -1.09321 -9.22742e-13 -2.31205e-12 -1.09321 -1.1576 -2.31205e-12 -2.68782e-12 -1.1576 -1.20223 -2.68782e-12 -1.02929e-12 -1.20223 -1.23149 -1.02929e-12 5.90067e-13 -1.23149 -1.25078 5.90067e-13 2.65615e-12 -1.25078 -1.2656 2.65615e-12 4.36073e-12 -1.2656 -1.28113 4.36073e-12 8.40196e-12 -1.28113 -1.30143 8.40196e-12 1.34714e-11 -1.30143 -1.32836 1.34714e-11 1.71944e-11 -1.32836 -1.36105 1.71944e-11 2.1275e-11 -1.36105 -1.39625 2.1275e-11 2.55606e-11 -1.39625 -1.42907 2.55606e-11 2.76036e-11 -1.42907 -1.4538 2.76036e-11 3.0184e-11 -1.4538 -1.46358 3.0184e-11 2.96561e-11 -1.46358 -1.45235 2.96561e-11 3.08841e-11 -1.45235 -1.42869 3.08841e-11 3.00509e-11 -1.42869 -1.41185 3.00509e-11 3.17733e-11 -1.41185 -1.41428 3.17733e-11 2.78515e-11 -1.41428 -1.49577 2.78515e-11 2.40433e-11 -1.49577 -1.76797 2.40433e-11 1.72014e-11 -1.76797 -2.14881 1.72014e-11 9.82682e-12 -2.14881 -2.64767 9.82682e-12 7.55536e-12 -2.64767 -2.7468 7.55536e-12 7.18626e-12 0 1.25579e-09 0 -2.51005 1.25579e-09 2.7079e-10 -2.51005 -1.79552 2.7079e-10 -3.43796e-12 -1.79552 -1.55448 -3.43796e-12 -1.3807e-11 -1.55448 -1.40619 -1.3807e-11 -1.67057e-11 -1.40619 -1.25431 -1.67057e-11 -1.40489e-11 -1.25431 -1.07355 -1.40489e-11 -1.26924e-11 -1.07355 -0.867398 -1.26924e-11 -1.21252e-11 -0.867398 -0.64549 -1.21252e-11 -9.15568e-12 -0.64549 -0.415475 -9.15568e-12 -5.75396e-12 -0.415475 -0.184731 -5.75396e-12 -3.10704e-12 -0.184731 0.039537 -3.10704e-12 -7.46887e-13 0.039537 0.251146 -7.46887e-13 -3.28008e-13 0.251146 0.445055 -3.28008e-13 1.04485e-12 0.445055 0.618034 1.04485e-12 6.60183e-13 0.618034 0.769195 6.60183e-13 -6.21147e-13 0.769195 0.898806 -6.21147e-13 -9.22742e-13 0.898806 1.00695 -9.22742e-13 -2.31205e-12 1.00695 1.09321 -2.31205e-12 -2.68782e-12 1.09321 1.1576 -2.68782e-12 -1.02929e-12 1.1576 1.20223 -1.02929e-12 5.90067e-13 1.20223 1.23149 5.90067e-13 2.65615e-12 1.23149 1.25078 2.65615e-12 4.36073e-12 1.25078 1.2656 4.36073e-12 8.40196e-12 1.2656 1.28113 8.40196e-12 1.34714e-11 1.28113 1.30143 1.34714e-11 1.71944e-11 1.30143 1.32836 1.71944e-11 2.1275e-11 1.32836 1.36105 2.1275e-11 2.55606e-11 1.36105 1.39625 2.55606e-11 2.76036e-11 1.39625 1.42907 2.76036e-11 3.0184e-11 1.42907 1.4538 3.0184e-11 2.96561e-11 1.4538 1.46358 2.96561e-11 3.08841e-11 1.46358 1.45235 3.08841e-11 3.00509e-11 1.45235 1.42869 3.00509e-11 3.17733e-11 1.42869 1.41185 3.17733e-11 2.78515e-11 1.41185 1.41428 2.78515e-11 2.40433e-11 1.41428 1.49577 2.40433e-11 1.72014e-11 1.49577 1.76797 1.72014e-11 9.82682e-12 1.76797 2.14881 9.82682e-12 7.55536e-12 2.14881 2.64767 7.55536e-12 7.18626e-12 2.64767 2.7468 0 -2.51005 0 -2.73097 -2.51005 -1.79552 -2.73097 -2.14802 -1.79552 -1.55448 -2.14802 -1.83703 -1.55448 -1.40619 -1.83703 -1.64135 -1.40619 -1.25431 -1.64135 -1.45475 -1.25431 -1.07355 -1.45475 -1.23423 -1.07355 -0.867398 -1.23423 -0.967166 -0.867398 -0.64549 -0.967166 -0.654681 -0.64549 -0.415475 -0.654681 -0.30744 -0.415475 -0.184731 -0.30744 0.0588239 -0.184731 0.039537 0.0588239 0.42785 0.039537 0.251146 0.42785 0.785123 0.251146 0.445055 0.785123 1.11851 0.445055 0.618034 1.11851 1.42084 0.618034 0.769195 1.42084 1.68945 0.769195 0.898806 1.68945 1.92305 0.898806 1.00695 1.92305 2.11962 1.00695 1.09321 2.11962 2.27696 1.09321 1.1576 2.27696 2.39531 1.1576 1.20223 2.39531 2.47914 1.20223 1.23149 2.47914 2.53607 1.23149 1.25078 2.53607 2.57524 1.25078 1.2656 2.57524 2.60642 1.2656 1.28113 2.60642 2.63882 1.28113 1.30143 2.63882 2.67925 1.30143 1.32836 2.67925 2.73037 1.32836 1.36105 2.73037 2.79008 1.36105 1.39625 2.79008 2.85218 1.39625 1.42907 2.85218 2.90651 1.42907 1.4538 2.90651 2.93878 1.4538 1.46358 2.93878 2.93691 1.46358 1.45235 2.93691 2.89735 1.45235 1.42869 2.89735 2.83619 1.42869 1.41185 2.83619 2.8703 1.41185 1.41428 2.8703 3.17815 1.41428 1.49577 3.17815 3.71436 1.49577 1.76797 3.71436 4.26579 1.76797 2.14881 4.26579 4.74666 2.14881 2.64767 4.74666 5.10519 2.64767 2.7468 5.10519 5.37257 0 -2.73097 0 -1.99886 -2.73097 -2.14802 -1.99886 -2.36699 -2.14802 -1.83703 -2.36699 -1.89428 -1.83703 -1.64135 -1.89428 -1.60173 -1.64135 -1.45475 -1.60173 -1.32222 -1.45475 -1.23423 -1.32222 -1.00976 -1.23423 -0.967166 -1.00976 -0.650175 -0.967166 -0.654681 -0.650175 -0.242289 -0.654681 -0.30744 -0.242289 0.206465 -0.30744 0.0588239 0.206465 0.682521 0.0588239 0.42785 0.682521 1.16548 0.42785 0.785123 1.16548 1.63284 0.785123 1.11851 1.63284 2.06929 1.11851 1.42084 2.06929 2.46752 1.42084 1.68945 2.46752 2.82335 1.68945 1.92305 2.82335 3.13381 1.92305 2.11962 3.13381 3.39553 2.11962 2.27696 3.39553 3.60537 2.27696 2.39531 3.60537 3.76568 2.39531 2.47914 3.76568 3.8829 2.47914 2.53607 3.8829 3.96645 2.53607 2.57524 3.96645 4.02831 2.57524 2.60642 4.02831 4.08143 2.60642 2.63882 4.08143 4.13705 2.63882 2.67925 4.13705 4.20215 2.67925 2.73037 4.20215 4.27782 2.73037 2.79008 4.27782 4.35861 2.79008 2.85218 4.35861 4.43264 2.85218 2.90651 4.43264 4.48303 2.90651 2.93878 4.48303 4.48912 2.93878 2.93691 4.48912 4.44509 2.93691 2.89735 4.44509 4.44997 2.89735 2.83619 4.44997 4.72114 2.83619 2.8703 4.72114 5.28718 2.8703 3.17815 5.28718 5.97775 3.17815 3.71436 5.97775 6.63176 3.71436 4.26579 6.63176 7.15013 4.26579 4.74666 7.15013 7.52898 4.74666 5.10519 7.52898 7.81287 5.10519 5.37257 7.81287 8.08653 0 -1.99886 0 -1.50548 -1.99886 -2.36699 -1.50548 -2.24678 -2.36699 -1.89428 -2.24678 -1.90945 -1.89428 -1.60173 -1.90945 -1.53044 -1.60173 -1.32222 -1.53044 -1.13791 -1.32222 -1.00976 -1.13791 -0.705575 -1.00976 -0.650175 -0.705575 -0.227207 -0.650175 -0.242289 -0.227207 0.299741 -0.242289 0.206465 0.299741 0.871886 0.206465 0.682521 0.871886 1.47307 0.682521 1.16548 1.47307 2.07894 1.16548 1.63284 2.07894 2.66232 1.63284 2.06929 2.66232 3.20382 2.06929 2.46752 3.20382 3.69386 2.46752 2.82335 3.69386 4.12893 2.82335 3.13381 4.12893 4.50482 3.13381 3.39553 4.50482 4.81865 3.39553 3.60537 4.81865 5.07331 3.60537 3.76568 5.07331 5.27314 3.76568 3.8829 5.27314 5.42493 3.8829 3.96645 5.42493 5.53983 3.96645 4.02831 5.53983 5.63258 4.02831 4.08143 5.63258 5.71785 4.08143 4.13705 5.71785 5.80619 4.13705 4.20215 5.80619 5.90127 4.20215 4.27782 5.90127 5.99935 4.27782 4.35861 5.99935 6.0901 4.35861 4.43264 6.0901 6.15786 4.43264 4.48303 6.15786 6.19589 4.48303 4.48912 6.19589 6.26559 4.48912 4.44509 6.26559 6.52973 4.44509 4.44997 6.52973 7.06237 4.44997 4.72114 7.06237 7.75331 4.72114 5.28718 7.75331 8.49606 5.28718 5.97775 8.49606 9.17405 5.97775 6.63176 9.17405 9.72241 6.63176 7.15013 9.72241 10.1382 7.15013 7.52898 10.1382 10.4542 7.52898 7.81287 10.4542 10.676