# vtk DataFile Version 3.0
#This file was generated by the deal.II library on 2015/9/1 at 17:13: 1
ASCII
DATASET UNSTRUCTURED_GRID

POINTS 11912 double
0 0 0
0.05 0 0
0 0.05 0
0.05 0.05 0
0.05 0 0
0.1 0 0
0.05 0.05 0
0.1 0.05 0
0.1 0 0
0.15 0 0
0.1 0.05 0
0.15 0.05 0
0.15 0 0
0.2 0 0
0.15 0.05 0
0.2 0.05 0
0.2 0 0
0.25 0 0
0.2 0.05 0
0.25 0.05 0
0.25 0 0
0.3 0 0
0.25 0.05 0
0.3 0.05 0
0.3 0 0
0.35 0 0
0.3 0.05 0
0.35 0.05 0
0.35 0 0
0.4 0 0
0.35 0.05 0
0.4 0.05 0
0.4 0 0
0.45 0 0
0.4 0.05 0
0.45 0.05 0
0.45 0 0
0.5 0 0
0.45 0.05 0
0.5 0.05 0
0.5 0 0
0.55 0 0
0.5 0.05 0
0.55 0.05 0
0.55 0 0
0.6 0 0
0.55 0.05 0
0.6 0.05 0
0.6 0 0
0.65 0 0
0.6 0.05 0
0.65 0.05 0
0.65 0 0
0.7 0 0
0.65 0.05 0
0.7 0.05 0
0.7 0 0
0.75 0 0
0.7 0.05 0
0.75 0.05 0
0.75 0 0
0.8 0 0
0.75 0.05 0
0.8 0.05 0
0.8 0 0
0.85 0 0
0.8 0.05 0
0.85 0.05 0
0.85 0 0
0.9 0 0
0.85 0.05 0
0.9 0.05 0
0.9 0 0
0.95 0 0
0.9 0.05 0
0.95 0.05 0
0.95 0 0
1 0 0
0.95 0.05 0
1 0.05 0
1 0 0
1.05 0 0
1 0.05 0
1.05 0.05 0
1.05 0 0
1.1 0 0
1.05 0.05 0
1.1 0.05 0
1.1 0 0
1.15 0 0
1.1 0.05 0
1.15 0.05 0
1.15 0 0
1.2 0 0
1.15 0.05 0
1.2 0.05 0
1.2 0 0
1.25 0 0
1.2 0.05 0
1.25 0.05 0
1.25 0 0
1.3 0 0
1.25 0.05 0
1.3 0.05 0
0.1 0.05 0
0.15 0.05 0
0.1 0.1 0
0.15 0.1 0
0.15 0.05 0
0.2 0.05 0
0.15 0.1 0
0.2 0.1 0
0.2 0.05 0
0.25 0.05 0
0.2 0.1 0
0.25 0.1 0
0.25 0.05 0
0.3 0.05 0
0.25 0.1 0
0.3 0.1 0
0.2 0.1 0
0.25 0.1 0
0.2 0.15 0
0.25 0.15 0
0.25 0.1 0
0.3 0.1 0
0.25 0.15 0
0.3 0.15 0
0.85 0.45 0
0.9 0.45 0
0.85 0.5 0
0.9 0.5 0
0.9 0.45 0
0.95 0.45 0
0.9 0.5 0
0.95 0.5 0
1.45 0.45 0
1.5 0.45 0
1.45 0.5 0
1.5 0.5 0
1.9 0.45 0
1.95 0.45 0
1.9 0.5 0
1.95 0.5 0
1.95 0.45 0
2 0.45 0
1.95 0.5 0
2 0.5 0
0.65 0.5 0
0.7 0.5 0
0.65 0.55 0
0.7 0.55 0
0.85 0.5 0
0.9 0.5 0
0.85 0.55 0
0.9 0.55 0
0.9 0.5 0
0.95 0.5 0
0.9 0.55 0
0.95 0.55 0
1.9 0.5 0
1.95 0.5 0
1.9 0.55 0
1.95 0.55 0
1.95 0.5 0
2 0.5 0
1.95 0.55 0
2 0.55 0
0.2 0.85 0
0.25 0.85 0
0.2 0.9 0
0.25 0.9 0
0.25 0.85 0
0.3 0.85 0
0.25 0.9 0
0.3 0.9 0
0.1 0.9 0
0.15 0.9 0
0.1 0.95 0
0.15 0.95 0
0.15 0.9 0
0.2 0.9 0
0.15 0.95 0
0.2 0.95 0
0.2 0.9 0
0.25 0.9 0
0.2 0.95 0
0.25 0.95 0
0.25 0.9 0
0.3 0.9 0
0.25 0.95 0
0.3 0.95 0
0 0.95 0
0.05 0.95 0
0 1 0
0.05 1 0
0.05 0.95 0
0.1 0.95 0
0.05 1 0
0.1 1 0
0.1 0.95 0
0.15 0.95 0
0.1 1 0
0.15 1 0
0.15 0.95 0
0.2 0.95 0
0.15 1 0
0.2 1 0
0.2 0.95 0
0.25 0.95 0
0.2 1 0
0.25 1 0
0.25 0.95 0
0.3 0.95 0
0.25 1 0
0.3 1 0
0.3 0.95 0
0.35 0.95 0
0.3 1 0
0.35 1 0
0.35 0.95 0
0.4 0.95 0
0.35 1 0
0.4 1 0
0.4 0.95 0
0.45 0.95 0
0.4 1 0
0.45 1 0
0.45 0.95 0
0.5 0.95 0
0.45 1 0
0.5 1 0
0.5 0.95 0
0.55 0.95 0
0.5 1 0
0.55 1 0
0.55 0.95 0
0.6 0.95 0
0.55 1 0
0.6 1 0
0.6 0.95 0
0.65 0.95 0
0.6 1 0
0.65 1 0
0.65 0.95 0
0.7 0.95 0
0.65 1 0
0.7 1 0
0.7 0.95 0
0.75 0.95 0
0.7 1 0
0.75 1 0
0.75 0.95 0
0.8 0.95 0
0.75 1 0
0.8 1 0
0.8 0.95 0
0.85 0.95 0
0.8 1 0
0.85 1 0
0.85 0.95 0
0.9 0.95 0
0.85 1 0
0.9 1 0
0.9 0.95 0
0.95 0.95 0
0.9 1 0
0.95 1 0
0.95 0.95 0
1 0.95 0
0.95 1 0
1 1 0
1 0.95 0
1.05 0.95 0
1 1 0
1.05 1 0
1.05 0.95 0
1.1 0.95 0
1.05 1 0
1.1 1 0
1.1 0.95 0
1.15 0.95 0
1.1 1 0
1.15 1 0
1.15 0.95 0
1.2 0.95 0
1.15 1 0
1.2 1 0
1.2 0.95 0
1.25 0.95 0
1.2 1 0
1.25 1 0
1.25 0.95 0
1.3 0.95 0
1.25 1 0
1.3 1 0
1.3 0 0
1.325 0 0
1.3 0.025 0
1.325 0.025 0
1.325 0 0
1.35 0 0
1.325 0.025 0
1.35 0.025 0
1.3 0.025 0
1.325 0.025 0
1.3 0.05 0
1.325 0.05 0
1.325 0.025 0
1.35 0.025 0
1.325 0.05 0
1.35 0.05 0
1.35 0 0
1.375 0 0
1.35 0.025 0
1.375 0.025 0
1.375 0 0
1.4 0 0
1.375 0.025 0
1.4 0.025 0
1.35 0.025 0
1.375 0.025 0
1.35 0.05 0
1.375 0.05 0
1.375 0.025 0
1.4 0.025 0
1.375 0.05 0
1.4 0.05 0
1.4 0 0
1.425 0 0
1.4 0.025 0
1.425 0.025 0
1.425 0 0
1.45 0 0
1.425 0.025 0
1.45 0.025 0
1.4 0.025 0
1.425 0.025 0
1.4 0.05 0
1.425 0.05 0
1.425 0.025 0
1.45 0.025 0
1.425 0.05 0
1.45 0.05 0
1.45 0 0
1.475 0 0
1.45 0.025 0
1.475 0.025 0
1.475 0 0
1.5 0 0
1.475 0.025 0
1.5 0.025 0
1.45 0.025 0
1.475 0.025 0
1.45 0.05 0
1.475 0.05 0
1.475 0.025 0
1.5 0.025 0
1.475 0.05 0
1.5 0.05 0
1.5 0 0
1.525 0 0
1.5 0.025 0
1.525 0.025 0
1.525 0 0
1.55 0 0
1.525 0.025 0
1.55 0.025 0
1.5 0.025 0
1.525 0.025 0
1.5 0.05 0
1.525 0.05 0
1.525 0.025 0
1.55 0.025 0
1.525 0.05 0
1.55 0.05 0
1.55 0 0
1.575 0 0
1.55 0.025 0
1.575 0.025 0
1.575 0 0
1.6 0 0
1.575 0.025 0
1.6 0.025 0
1.55 0.025 0
1.575 0.025 0
1.55 0.05 0
1.575 0.05 0
1.575 0.025 0
1.6 0.025 0
1.575 0.05 0
1.6 0.05 0
1.6 0 0
1.625 0 0
1.6 0.025 0
1.625 0.025 0
1.625 0 0
1.65 0 0
1.625 0.025 0
1.65 0.025 0
1.6 0.025 0
1.625 0.025 0
1.6 0.05 0
1.625 0.05 0
1.625 0.025 0
1.65 0.025 0
1.625 0.05 0
1.65 0.05 0
1.65 0 0
1.675 0 0
1.65 0.025 0
1.675 0.025 0
1.675 0 0
1.7 0 0
1.675 0.025 0
1.7 0.025 0
1.65 0.025 0
1.675 0.025 0
1.65 0.05 0
1.675 0.05 0
1.675 0.025 0
1.7 0.025 0
1.675 0.05 0
1.7 0.05 0
1.7 0 0
1.725 0 0
1.7 0.025 0
1.725 0.025 0
1.725 0 0
1.75 0 0
1.725 0.025 0
1.75 0.025 0
1.7 0.025 0
1.725 0.025 0
1.7 0.05 0
1.725 0.05 0
1.725 0.025 0
1.75 0.025 0
1.725 0.05 0
1.75 0.05 0
1.75 0 0
1.775 0 0
1.75 0.025 0
1.775 0.025 0
1.775 0 0
1.8 0 0
1.775 0.025 0
1.8 0.025 0
1.75 0.025 0
1.775 0.025 0
1.75 0.05 0
1.775 0.05 0
1.775 0.025 0
1.8 0.025 0
1.775 0.05 0
1.8 0.05 0
1.8 0 0
1.825 0 0
1.8 0.025 0
1.825 0.025 0
1.825 0 0
1.85 0 0
1.825 0.025 0
1.85 0.025 0
1.8 0.025 0
1.825 0.025 0
1.8 0.05 0
1.825 0.05 0
1.825 0.025 0
1.85 0.025 0
1.825 0.05 0
1.85 0.05 0
1.85 0 0
1.875 0 0
1.85 0.025 0
1.875 0.025 0
1.875 0 0
1.9 0 0
1.875 0.025 0
1.9 0.025 0
1.85 0.025 0
1.875 0.025 0
1.85 0.05 0
1.875 0.05 0
1.875 0.025 0
1.9 0.025 0
1.875 0.05 0
1.9 0.05 0
1.9 0 0
1.925 0 0
1.9 0.025 0
1.925 0.025 0
1.925 0 0
1.95 0 0
1.925 0.025 0
1.95 0.025 0
1.9 0.025 0
1.925 0.025 0
1.9 0.05 0
1.925 0.05 0
1.925 0.025 0
1.95 0.025 0
1.925 0.05 0
1.95 0.05 0
1.95 0 0
1.975 0 0
1.95 0.025 0
1.975 0.025 0
1.975 0 0
2 0 0
1.975 0.025 0
2 0.025 0
1.95 0.025 0
1.975 0.025 0
1.95 0.05 0
1.975 0.05 0
1.975 0.025 0
2 0.025 0
1.975 0.05 0
2 0.05 0
0 0.05 0
0.025 0.05 0
0 0.075 0
0.025 0.075 0
0.025 0.05 0
0.05 0.05 0
0.025 0.075 0
0.05 0.075 0
0 0.075 0
0.025 0.075 0
0 0.1 0
0.025 0.1 0
0.025 0.075 0
0.05 0.075 0
0.025 0.1 0
0.05 0.1 0
0.05 0.05 0
0.075 0.05 0
0.05 0.075 0
0.075 0.075 0
0.075 0.05 0
0.1 0.05 0
0.075 0.075 0
0.1 0.075 0
0.05 0.075 0
0.075 0.075 0
0.05 0.1 0
0.075 0.1 0
0.075 0.075 0
0.1 0.075 0
0.075 0.1 0
0.1 0.1 0
0.3 0.05 0
0.325 0.05 0
0.3 0.075 0
0.325 0.075 0
0.325 0.05 0
0.35 0.05 0
0.325 0.075 0
0.35 0.075 0
0.3 0.075 0
0.325 0.075 0
0.3 0.1 0
0.325 0.1 0
0.325 0.075 0
0.35 0.075 0
0.325 0.1 0
0.35 0.1 0
0.35 0.05 0
0.375 0.05 0
0.35 0.075 0
0.375 0.075 0
0.375 0.05 0
0.4 0.05 0
0.375 0.075 0
0.4 0.075 0
0.35 0.075 0
0.375 0.075 0
0.35 0.1 0
0.375 0.1 0
0.375 0.075 0
0.4 0.075 0
0.375 0.1 0
0.4 0.1 0
0.4 0.05 0
0.425 0.05 0
0.4 0.075 0
0.425 0.075 0
0.425 0.05 0
0.45 0.05 0
0.425 0.075 0
0.45 0.075 0
0.4 0.075 0
0.425 0.075 0
0.4 0.1 0
0.425 0.1 0
0.425 0.075 0
0.45 0.075 0
0.425 0.1 0
0.45 0.1 0
0.45 0.05 0
0.475 0.05 0
0.45 0.075 0
0.475 0.075 0
0.475 0.05 0
0.5 0.05 0
0.475 0.075 0
0.5 0.075 0
0.45 0.075 0
0.475 0.075 0
0.45 0.1 0
0.475 0.1 0
0.475 0.075 0
0.5 0.075 0
0.475 0.1 0
0.5 0.1 0
0.5 0.05 0
0.525 0.05 0
0.5 0.075 0
0.525 0.075 0
0.525 0.05 0
0.55 0.05 0
0.525 0.075 0
0.55 0.075 0
0.5 0.075 0
0.525 0.075 0
0.5 0.1 0
0.525 0.1 0
0.525 0.075 0
0.55 0.075 0
0.525 0.1 0
0.55 0.1 0
0.55 0.05 0
0.575 0.05 0
0.55 0.075 0
0.575 0.075 0
0.575 0.05 0
0.6 0.05 0
0.575 0.075 0
0.6 0.075 0
0.55 0.075 0
0.575 0.075 0
0.55 0.1 0
0.575 0.1 0
0.575 0.075 0
0.6 0.075 0
0.575 0.1 0
0.6 0.1 0
0.6 0.05 0
0.625 0.05 0
0.6 0.075 0
0.625 0.075 0
0.625 0.05 0
0.65 0.05 0
0.625 0.075 0
0.65 0.075 0
0.6 0.075 0
0.625 0.075 0
0.6 0.1 0
0.625 0.1 0
0.625 0.075 0
0.65 0.075 0
0.625 0.1 0
0.65 0.1 0
0.65 0.05 0
0.675 0.05 0
0.65 0.075 0
0.675 0.075 0
0.675 0.05 0
0.7 0.05 0
0.675 0.075 0
0.7 0.075 0
0.65 0.075 0
0.675 0.075 0
0.65 0.1 0
0.675 0.1 0
0.675 0.075 0
0.7 0.075 0
0.675 0.1 0
0.7 0.1 0
0.7 0.05 0
0.725 0.05 0
0.7 0.075 0
0.725 0.075 0
0.725 0.05 0
0.75 0.05 0
0.725 0.075 0
0.75 0.075 0
0.7 0.075 0
0.725 0.075 0
0.7 0.1 0
0.725 0.1 0
0.725 0.075 0
0.75 0.075 0
0.725 0.1 0
0.75 0.1 0
0.75 0.05 0
0.775 0.05 0
0.75 0.075 0
0.775 0.075 0
0.775 0.05 0
0.8 0.05 0
0.775 0.075 0
0.8 0.075 0
0.75 0.075 0
0.775 0.075 0
0.75 0.1 0
0.775 0.1 0
0.775 0.075 0
0.8 0.075 0
0.775 0.1 0
0.8 0.1 0
0.8 0.05 0
0.825 0.05 0
0.8 0.075 0
0.825 0.075 0
0.825 0.05 0
0.85 0.05 0
0.825 0.075 0
0.85 0.075 0
0.8 0.075 0
0.825 0.075 0
0.8 0.1 0
0.825 0.1 0
0.825 0.075 0
0.85 0.075 0
0.825 0.1 0
0.85 0.1 0
0.85 0.05 0
0.875 0.05 0
0.85 0.075 0
0.875 0.075 0
0.875 0.05 0
0.9 0.05 0
0.875 0.075 0
0.9 0.075 0
0.85 0.075 0
0.875 0.075 0
0.85 0.1 0
0.875 0.1 0
0.875 0.075 0
0.9 0.075 0
0.875 0.1 0
0.9 0.1 0
0.9 0.05 0
0.925 0.05 0
0.9 0.075 0
0.925 0.075 0
0.925 0.05 0
0.95 0.05 0
0.925 0.075 0
0.95 0.075 0
0.9 0.075 0
0.925 0.075 0
0.9 0.1 0
0.925 0.1 0
0.925 0.075 0
0.95 0.075 0
0.925 0.1 0
0.95 0.1 0
0.95 0.05 0
0.975 0.05 0
0.95 0.075 0
0.975 0.075 0
0.975 0.05 0
1 0.05 0
0.975 0.075 0
1 0.075 0
0.95 0.075 0
0.975 0.075 0
0.95 0.1 0
0.975 0.1 0
0.975 0.075 0
1 0.075 0
0.975 0.1 0
1 0.1 0
1 0.05 0
1.025 0.05 0
1 0.075 0
1.025 0.075 0
1.025 0.05 0
1.05 0.05 0
1.025 0.075 0
1.05 0.075 0
1 0.075 0
1.025 0.075 0
1 0.1 0
1.025 0.1 0
1.025 0.075 0
1.05 0.075 0
1.025 0.1 0
1.05 0.1 0
1.05 0.05 0
1.075 0.05 0
1.05 0.075 0
1.075 0.075 0
1.075 0.05 0
1.1 0.05 0
1.075 0.075 0
1.1 0.075 0
1.05 0.075 0
1.075 0.075 0
1.05 0.1 0
1.075 0.1 0
1.075 0.075 0
1.1 0.075 0
1.075 0.1 0
1.1 0.1 0
1.1 0.05 0
1.125 0.05 0
1.1 0.075 0
1.125 0.075 0
1.125 0.05 0
1.15 0.05 0
1.125 0.075 0
1.15 0.075 0
1.1 0.075 0
1.125 0.075 0
1.1 0.1 0
1.125 0.1 0
1.125 0.075 0
1.15 0.075 0
1.125 0.1 0
1.15 0.1 0
1.15 0.05 0
1.175 0.05 0
1.15 0.075 0
1.175 0.075 0
1.175 0.05 0
1.2 0.05 0
1.175 0.075 0
1.2 0.075 0
1.15 0.075 0
1.175 0.075 0
1.15 0.1 0
1.175 0.1 0
1.175 0.075 0
1.2 0.075 0
1.175 0.1 0
1.2 0.1 0
1.2 0.05 0
1.225 0.05 0
1.2 0.075 0
1.225 0.075 0
1.225 0.05 0
1.25 0.05 0
1.225 0.075 0
1.25 0.075 0
1.2 0.075 0
1.225 0.075 0
1.2 0.1 0
1.225 0.1 0
1.225 0.075 0
[...]
POINT_DATA 11912
SCALARS x_displacement double 1
LOOKUP_TABLE default
0 -1.48739 0 -0.860093 -1.48739 -2.59603 -0.860093 -1.75738 -2.59603 -3.50261 -1.75738 -2.53885 -3.50261 -4.27504 -2.53885 -3.23152 -4.27504 -4.96027 -3.23152 -3.85005 -4.96027 -5.60395 -3.85005 -4.41311 -5.60395 -6.2454 -4.41311 -4.95621 -6.2454 -6.90726 -4.95621 -5.50044 -6.90726 -7.57234 -5.50044 -6.07063 -7.57234 -8.2059 -6.07063 -6.66605 -8.2059 -8.78755 -6.66605 -7.28169 -8.78755 -9.33147 -7.28169 -7.89895 -9.33147 -9.87519 -7.89895 -8.50107 -9.87519 -10.4486 -8.50107 -9.07454 -10.4486 -11.0452 -9.07454 -9.61837 -11.0452 -11.6454 -9.61837 -10.1443 -11.6454 -12.2347 -10.1443 -10.6611 -12.2347 -12.8052 -10.6611 -11.1739 -12.8052 -13.355 -11.1739 -11.6845 -13.355 -13.8849 -11.6845 -12.1922 -13.8849 -14.4017 -12.1922 -12.6926 -14.4017 -14.9264 -12.6926 -13.179 -14.9264 -15.4856 -13.179 -13.6503 -15.4856 -16.0674 -13.6503 -14.1061 -16.0674 -16.5863 -14.1061 -14.5285 -16.5863 -16.9608 -14.5285 -14.91 -1.75738 -2.53885 -1.1881 -1.79318 -2.53885 -3.23152 -1.79318 -2.35426 -3.23152 -3.85005 -2.35426 -2.86223 -3.85005 -4.41311 -2.86223 -3.30449 -2.35426 -2.86223 -1.59016 -2.00191 -2.86223 -3.30449 -2.00191 -2.36657 -1.02865 -1.14894 -0.0164444 -0.0156047 -1.14894 -1.21027 -0.0156047 -0.0154141 -1.3572 -1.36524 -0.00971666 -0.00970032 -2.07906 -2.33988 -0.00827571 -0.008425 -2.33988 -2.41204 -0.008425 -0.0085161 -0.215655 -0.125051 0.324817 0.467726 -0.0164444 -0.0156047 0.996426 1.11781 -0.0156047 -0.0154141 1.11781 1.17959 -0.00827571 -0.008425 2.06212 2.32281 -0.008425 -0.0085161 2.32281 2.39482 1.57528 1.9876 2.34777 2.85529 1.9876 2.35254 2.85529 3.29704 1.18268 1.78712 1.75986 2.54162 1.78712 2.34777 2.54162 3.23376 2.34777 2.85529 3.23376 3.85106 2.85529 3.29704 3.85106 4.41253 0 0.861518 0 1.49618 0.861518 1.75986 1.49618 2.60889 1.75986 2.54162 2.60889 3.51635 2.54162 3.23376 3.51635 4.28768 3.23376 3.85106 4.28768 4.97047 3.85106 4.41253 4.97047 5.61069 4.41253 4.95372 5.61069 6.24777 4.95372 5.49555 6.24777 6.90476 5.49555 6.06289 6.90476 7.56494 6.06289 6.6551 7.56494 8.19409 6.6551 7.26776 8.19409 8.77197 7.26776 7.88212 8.77197 9.31257 7.88212 8.48204 9.31257 9.85323 8.48204 9.05393 9.85323 10.4239 9.05393 9.59667 10.4239 11.0178 9.59667 10.1219 11.0178 11.6158 10.1219 10.6382 11.6158 12.2036 10.6382 11.1506 12.2036 12.7735 11.1506 11.6609 12.7735 13.3237 11.6609 12.1684 13.3237 13.8547 12.1684 12.669 13.8547 14.373 12.669 13.1556 14.373 14.8993 13.1556 13.6274 14.8993 15.4601 13.6274 14.0838 15.4601 16.0432 14.0838 14.5063 16.0432 16.5626 14.5063 14.8878 16.5626 16.9372 -16.9608 -17.1148 -15.9354 -16.0816 -17.1148 -17.235 -16.0816 -16.2374 -15.9354 -16.0816 -14.91 -15.0852 -16.0816 -16.2374 -15.0852 -15.2366 -17.235 -17.3559 -16.2374 -16.3952 -17.3559 -17.4048 -16.3952 -16.544 -16.2374 -16.3952 -15.2366 -15.3706 -16.3952 -16.544 -15.3706 -15.4994 -17.4048 -17.4871 -16.544 -16.6425 -17.4871 -17.9689 -16.6425 -16.6752 -16.544 -16.6425 -15.4994 -15.6302 -16.6425 -16.6752 -15.6302 -15.7194 -17.9689 -18.2517 -16.6752 -16.9241 -18.2517 -18.4765 -16.9241 -17.1786 -16.6752 -16.9241 -15.7194 -15.7718 -16.9241 -17.1786 -15.7718 -15.8731 -18.4765 -18.6947 -17.1786 -17.393 -18.6947 -18.8837 -17.393 -17.5923 -17.1786 -17.393 -15.8731 -16.1447 -17.393 -17.5923 -16.1447 -16.3483 -18.8837 -19.0529 -17.5923 -17.7722 -19.0529 -19.2046 -17.7722 -17.9341 -17.5923 -17.7722 -16.3483 -16.5319 -17.7722 -17.9341 -16.5319 -16.7056 -19.2046 -19.3386 -17.9341 -18.0786 -19.3386 -19.4545 -18.0786 -18.205 -17.9341 -18.0786 -16.7056 -16.8583 -18.0786 -18.205 -16.8583 -16.9931 -19.4545 -19.5525 -18.205 -18.3149 -19.5525 -19.6338 -18.3149 -18.4092 -18.205 -18.3149 -16.9931 -17.1135 -18.3149 -18.4092 -17.1135 -17.2196 -19.6338 -19.6992 -18.4092 -18.4884 -19.6992 -19.7491 -18.4884 -18.5528 -18.4092 -18.4884 -17.2196 -17.3113 -18.4884 -18.5528 -17.3113 -17.3885 -19.7491 -19.7843 -18.5528 -18.6033 -19.7843 -19.8058 -18.6033 -18.641 -18.5528 -18.6033 -17.3885 -17.452 -18.6033 -18.641 -17.452 -17.5025 -19.8058 -19.8153 -18.641 -18.667 -19.8153 -19.815 -18.667 -18.6833 -18.641 -18.667 -17.5025 -17.5412 -18.667 -18.6833 -17.5412 -17.5693 -19.815 -19.8077 -18.6833 -18.6917 -19.8077 -19.7966 -18.6917 -18.6945 -18.6833 -18.6917 -17.5693 -17.5883 -18.6917 -18.6945 -17.5883 -17.5999 -19.7966 -19.785 -18.6945 -18.694 -19.785 -19.776 -18.694 -18.6922 -18.6945 -18.694 -17.5999 -17.606 -18.694 -18.6922 -17.606 -17.6086 -19.776 -19.7715 -18.6922 -18.6909 -19.7715 -19.7705 -18.6909 -18.6909 -18.6922 -18.6909 -17.6086 -17.6097 -18.6909 -18.6909 -17.6097 -17.6112 0 -0.430046 0 -0.353 -0.430046 -0.860093 -0.353 -0.721332 0 -0.353 0 -0.274415 -0.353 -0.721332 -0.274415 -0.586905 -0.860093 -1.30874 -0.721332 -1.0913 -1.30874 -1.75738 -1.0913 -1.47274 -0.721332 -1.0913 -0.586905 -0.893351 -1.0913 -1.47274 -0.893351 -1.1881 -4.41311 -4.68466 -3.8588 -4.08375 -4.68466 -4.95621 -4.08375 -4.30913 -3.8588 -4.08375 -3.30449 -3.50629 -4.08375 -4.30913 -3.50629 -3.67989 -4.95621 -5.22832 -4.30913 -4.54218 -5.22832 -5.50044 -4.54218 -4.78766 -4.30913 -4.54218 -3.67989 -3.85522 -4.54218 -4.78766 -3.85522 -4.06194 -5.50044 -5.78554 -4.78766 -5.03883 -5.78554 -6.07063 -5.03883 -5.29819 -4.78766 -5.03883 -4.06194 -4.28164 -5.03883 -5.29819 -4.28164 -4.49099 -6.07063 -6.36834 -5.29819 -5.58348 -6.36834 -6.66605 -5.58348 -5.89095 -5.29819 -5.58348 -4.49099 -4.75297 -5.58348 -5.89095 -4.75297 -5.08515 -6.66605 -6.97387 -5.89095 -6.2054 -6.97387 -7.28169 -6.2054 -6.52267 -5.89095 -6.2054 -5.08515 -5.42226 -6.2054 -6.52267 -5.42226 -5.73097 -7.28169 -7.59032 -6.52267 -6.857 -7.59032 -7.89895 -6.857 -7.19543 -6.52267 -6.857 -5.73097 -6.10947 -6.857 -7.19543 -6.10947 -6.5207 -7.89895 -8.20001 -7.19543 -7.52576 -8.20001 -8.50107 -7.52576 -7.83904 -7.19543 -7.52576 -6.5207 -6.89745 -7.52576 -7.83904 -6.89745 -7.22333 -8.50107 -8.78781 -7.83904 -8.12851 -8.78781 -9.07454 -8.12851 -8.40422 -7.83904 -8.12851 -7.22333 -7.49734 -8.12851 -8.40422 -7.49734 -7.75374 -9.07454 -9.34646 -8.40422 -8.66289 -9.34646 -9.61837 -8.66289 -8.91533 -8.40422 -8.66289 -7.75374 -7.98947 -8.66289 -8.91533 -7.98947 -8.21995 -9.61837 -9.88131 -8.91533 -9.15958 -9.88131 -10.1443 -9.15958 -9.39946 -8.91533 -9.15958 -8.21995 -8.4414 -9.15958 -9.39946 -8.4414 -8.65359 -10.1443 -10.4027 -9.39946 -9.63879 -10.4027 -10.6611 -9.63879 -9.8787 -9.39946 -9.63879 -8.65359 -8.87086 -9.63879 -9.8787 -8.87086 -9.09263 -10.6611 -10.9175 -9.8787 -10.1199 -10.9175 -11.1739 -10.1199 -10.3629 -9.8787 -10.1199 -9.09263 -9.31836 -10.1199 -10.3629 -9.31836 -9.54798 -11.1739 -11.4292 -10.3629 -10.6073 -11.4292 -11.6845 -10.6073 -10.8536 -10.3629 -10.6073 -9.54798 -9.78146 -10.6073 -10.8536 -9.78146 -10.0188 -11.6845 -11.9383 -10.8536 -11.1012 -11.9383 -12.1922 -11.1012 -11.3497 -10.8536 -11.1012 -10.0188 -10.2599 -11.1012 -11.3497 -10.2599 -10.5048 -12.1922 -12.4424 -11.3497 -11.5979 -12.4424 -12.6926 -11.5979 -11.843 -11.3497 -11.5979 -10.5048 -10.7529 -11.5979 -11.843 -10.7529 -11.0021 -12.6926 -12.9358 -11.843 -12.0833 -12.9358 -13.179 -12.0833 -12.3144 -11.843 -12.0833 -11.0021 -11.2465 -12.0833 -12.3144 -11.2465 -11.4795 -13.179 -13.4146 -12.3144 -12.5382 -13.4146 -13.6503 -12.5382 -12.7522 -12.3144 -12.5382 -11.4795 -11.6983 -12.5382 -12.7522 -11.6983 -11.9029 -13.6503 -13.8782 -12.7522 -12.9642 -13.8782 -14.1061 -12.9642 -13.1674 -12.7522 -12.9642 -11.9029 -12.0896 -12.9642 -13.1674 -12.0896 -12.2615 -14.1061 -14.3173 -13.1674 -13.3652 -14.3173 -14.5285 -13.3652 -13.5546 -13.1674 -13.3652 -12.2615 -12.4242 -13.3652 -13.5546 -12.4242 -12.5839 -14.5285 -14.7193 -13.5546 -13.7359 -14.7193 -14.91 -13.7359 -13.9046 -13.5546 -13.7359 -12.5839 -12.7403 -13.7359 -13.9046 -12.7403 -12.8869 -14.91 -15.0852 -13.9046 -14.0559 -15.0852 -15.2366 -14.0559 -14.1951 -13.9046 -14.0559 -12.8869 -13.0218 -14.0559 -14.1951 -13.0218 -13.1493 -15.2366 -15.3706 -14.1951 -14.3278 -15.3706 -15.4994 -14.3278 -14.4547 -14.1951 -14.3278 -13.1493 -13.2737 -14.3278 -14.4547 -13.2737 -13.3983 -15.4994 -15.6302 -14.4547 -14.5688 -15.6302 -15.7194 -14.5688 -14.6933 -14.4547 -14.5688 -13.3983 -13.5237 -14.5688 -14.6933 -13.5237 -13.6533 -15.7194 -15.7718 -14.6933 -14.845 -15.7718 -15.8731 -14.845 -14.9287 -14.6933 -14.845 -13.6533 -13.7816 -14.845 -14.9287 -13.7816 -13.9136 -15.8731 -16.1447 -14.9287 -14.9362 -16.1447 -16.3483 -14.9362 -15.1442 -14.9287 -14.9362 -13.9136 -14.0103 -14.9362 -15.1442 -14.0103 -14.0732 -16.3483 -16.5319 -15.1442 -15.3409 -16.5319 -16.7056 -15.3409 -15.5173 -15.1442 -15.3409 -14.0732 -14.1542 -15.3409 -15.5173 -14.1542 -14.3602 -16.7056 -16.8583 -15.5173 -15.6733 -16.8583 -16.9931 -15.6733 -15.816 -15.5173 -15.6733 -14.3602 -14.5222 -15.6733 -15.816 -14.5222 -14.6658 -16.9931 -17.1135 -15.816 -15.9459 -17.1135 -17.2196 -15.9459 -16.064 -15.816 -15.9459 -14.6658 -14.8143 -15.9459 -16.064 -14.8143 -14.9421 -17.2196 -17.3113 -16.064 -16.1667 -17.3113 -17.3885 -16.1667 -16.2548 -16.064 -16.1667 -14.9421 -15.0531 -16.1667 -16.2548 -15.0531 -15.1506 -17.3885 -17.452 -16.2548 -16.3291 -17.452 -17.5025 -16.3291 -16.39 -16.2548 -16.3291 -15.1506 -15.2341 -16.3291 -16.39 -15.2341 -15.3036 -17.5025 -17.5412 -16.39 -16.4385 -17.5412 -17.5693 -16.4385 -16.4753 -16.39 -16.4385 -15.3036 -15.3599 -16.4385 -16.4753 -15.3599 -15.4034 -17.5693 -17.5883 -16.4753 -16.5015 -17.5883 -17.5999 -16.5015 -16.5187 -16.4753 -16.5015 -15.4034 -15.4348 -16.5015 -16.5187 -15.4348 -15.4555 -17.5999 -17.606 -16.5187 -16.5285 -17.606 -17.6086 -16.5285 -16.5332 -16.5187 -16.5285 -15.4555 -15.4672 -16.5285 -16.5332 -15.4672 -15.4724 -17.6086 -17.6097 -16.5332 -16.5353 -17.6097 -17.6112 -16.5353 -16.5377 -16.5332 -16.5353 -15.4724 -15.4743 -16.5353 -16.5377 -15.4743 -15.4768 0 -0.274415 0 -0.210482 -0.274415 -0.586905 -0.210482 -0.459422 0 -0.210482 0 -0.116914 -0.210482 -0.459422 -0.116914 -0.271471 -0.586905 -0.893351 -0.459422 -0.692721 -0.893351 -1.1881 -0.692721 -0.950492 -0.459422 -0.692721 -0.271471 -0.48483 -0.692721 -0.950492 -0.48483 -0.730068 -1.1881 -1.49064 -0.950492 -1.21389 -1.49064 -1.79318 -1.21389 -1.4681 -0.950492 -1.21389 -0.730068 -0.941542 -1.21389 -1.4681 -0.941542 -1.15821 -1.79318 -2.07372 -1.4681 -1.72131 -2.07372 -2.35426 -1.72131 -1.97221 -1.4681 -1.72131 -1.15821 -1.37972 -1.72131 -1.97221 -1.37972 -1.59016 -3.30449 -3.50629 -2.83553 -2.99153 -3.50629 -3.67989 -2.99153 -3.13254 -2.83553 -2.99153 -2.36657 -2.53375 -2.99153 -3.13254 -2.53375 -2.6787 -3.67989 -3.85522 -3.13254 -3.25139 -3.85522 -4.06194 -3.25139 -3.37432 -3.13254 -3.25139 -2.6787 -2.80467 -3.25139 -3.37432 -2.80467 -2.92936 -4.06194 -4.28164 -3.37432 -3.53794 -4.28164 -4.49099 -3.53794 -3.73559 -3.37432 -3.53794 -2.92936 -3.06178 -3.53794 -3.73559 -3.06178 -3.19943 -4.49099 -4.75297 -3.73559 -3.94695 -4.75297 -5.08515 -3.94695 -4.1838 -3.73559 -3.94695 -3.19943 -3.33866 -3.94695 -4.1838 -3.33866 -3.43999 -5.08515 -5.42226 -4.1838 -4.51999 -5.42226 -5.73097 -4.51999 -4.91549 -4.1838 -4.51999 -3.43999 -3.49576 -4.51999 -4.91549 -3.49576 -3.83497 -5.73097 -6.10947 -4.91549 -5.33746 -6.10947 -6.5207 -5.33746 -5.87427 -4.91549 -5.33746 -3.83497 -4.52246 -5.33746 -5.87427 -4.52246 -5.37823 -6.5207 -6.89745 -5.87427 -6.31378 -6.89745 -7.22333 -6.31378 -6.6129 -5.87427 -6.31378 -5.37823 -5.77101 -6.31378 -6.6129 -5.77101 -6.05259 -7.22333 -7.49734 -6.6129 -6.87352 -7.49734 -7.75374 -6.87352 -7.09342 -6.6129 -6.87352 -6.05259 -6.20438 -6.87352 -7.09342 -6.20438 -6.45698 -7.75374 -7.98947 -7.09342 -7.31307 -7.98947 -8.21995 -7.31307 -7.51593 -7.09342 -7.31307 -6.45698 -6.60761 -7.31307 -7.51593 -6.60761 -6.81819 -8.21995 -8.4414 -7.51593 -7.71728 -8.4414 -8.65359 -7.71728 -7.90307 -7.51593 -7.71728 -6.81819 -6.98329 -7.71728 -7.90307 -6.98329 -7.15099 -8.65359 -8.87086 -7.90307 -8.09916 -8.87086 -9.09263 -8.09916 -8.30295 -7.90307 -8.09916 -7.15099 -7.32711 -8.09916 -8.30295 -7.32711 -7.51276 -9.09263 -9.31836 -8.30295 -8.51327 -9.31836 -9.54798 -8.51327 -8.7297 -8.30295 -8.51327 -7.51276 -7.70769 -8.51327 -8.7297 -7.70769 -7.91093 -9.54798 -9.78146 -8.7297 -8.9521 -9.78146 -10.0188 -8.9521 -9.18046 -8.7297 -8.9521 -7.91093 -8.12226 -8.9521 -9.18046 -8.12226 -8.34169 -10.0188 -10.2599 -9.18046 -9.41502 -10.2599 -10.5048 -9.41502 -9.65689 -9.18046 -9.41502 -8.34169 -8.56977 -9.41502 -9.65689 -8.56977 -8.80933 -10.5048 -10.7529 -9.65689 -9.90987 -10.7529 -11.0021 -9.90987 -10.1767 -9.65689 -9.90987 -8.80933 -9.0738 -9.90987 -10.1767 -9.0738 -9.37957 -11.0021 -11.2465 -10.1767 -10.4428 -11.2465 -11.4795 -10.4428 -10.6941 -10.1767 -10.4428 -9.37957 -9.6964 -10.4428 -10.6941 -9.6964 -10.0545 -11.4795 -11.6983 -10.6941 -10.9349 -11.6983 -11.9029 -10.9349 -11.1273 -10.6941 -10.9349 -10.0545 -10.2926 -10.9349 -11.1273 -10.2926 -10.4025 -11.9029 -12.0896 -11.1273 -11.267 -12.0896 -12.2615 -11.267 -11.3827 -11.1273 -11.267 -10.4025 -10.4714 -11.267 -11.3827 -10.4714 -10.5242 -12.2615 -12.4242 -11.3827 -11.4911 -12.4242 -12.5839 -11.4911 -11.6 -11.3827 -11.4911 -10.5242 -10.5693 -11.4911 -11.6 -10.5693 -10.6092 -12.5839 -12.7403 -11.6 -11.7135 -12.7403 -12.8869 -11.7135 -11.8359 -11.6 -11.7135 -10.6092 -10.6529 -11.7135 -11.8359 -10.6529 -10.729 -12.8869 -13.0218 -11.8359 -11.9603 -13.0218 -13.1493 -11.9603 -12.0829 -11.8359 -11.9603 -10.729 -10.8463 -11.9603 -12.0829 -10.8463 -10.9873 -13.1493 -13.2737 -12.0829 -12.2091 -13.2737 -13.3983 -12.2091 -12.3392 -12.0829 -12.2091 -10.9873 -11.1315 -12.2091 -12.3392 -11.1315 -11.2716 -13.3983 -13.5237 -12.3392 -12.4698 -13.5237 -13.6533 -12.4698 -12.603 -12.3392 -12.4698 -11.2716 -11.4107 -12.4698 -12.603 -11.4107 -11.5495 -13.6533 -13.7816 -12.603 -12.7364 -13.7816 -13.9136 -12.7364 -12.8598 -12.603 -12.7364 -11.5495 -11.6884 -12.7364 -12.8598 -11.6884 -11.8282 -13.9136 -14.0103 -12.8598 -12.9967 -14.0103 -14.0732 -12.9967 -13.1613 -12.8598 -12.9967 -11.8282 -11.9726 -12.9967 -13.1613 -11.9726 -12.1088 -14.0732 -14.1542 -13.1613 -13.2475 -14.1542 -14.3602 -13.2475 -13.2233 -13.1613 -13.2475 -12.1088 -12.2425 -13.2475 -13.2233 -12.2425 -12.3666 -14.3602 -14.5222 -13.2233 -13.3626 -14.5222 -14.6658 -13.3626 -13.567 -13.2233 -13.3626 -12.3666 -12.4752 -13.3626 -13.567 -12.4752 -12.5012 -14.6658 -14.8143 -13.567 -13.7226 -14.8143 -14.9421 -13.7226 -13.8497 -13.567 -13.7226 -12.5012 -12.6499 -13.7226 -13.8497 -12.6499 -12.7849 -14.9421 -15.0531 -13.8497 -13.9694 -15.0531 -15.1506 -13.9694 -14.0755 -13.8497 -13.9694 -12.7849 -12.9158 -13.9694 -14.0755 -12.9158 -13.0285 -15.1506 -15.2341 -14.0755 -14.1666 -15.2341 -15.3036 -14.1666 -14.2435 -14.0755 -14.1666 -13.0285 -13.1256 -14.1666 -14.2435 -13.1256 -13.2094 -15.3036 -15.3599 -14.2435 -14.3066 -15.3599 -15.4034 -14.3066 -14.3557 -14.2435 -14.3066 -13.2094 -13.2797 -14.3066 -14.3557 -13.2797 -13.334 -15.4034 -15.4348 -14.3557 -14.3912 -15.4348 -15.4555 -14.3912 -14.4142 -14.3557 -14.3912 -13.334 -13.3731 -14.3912 -14.4142 -13.3731 -13.3982 -15.4555 -15.4672 -14.4142 -14.4267 -15.4672 -15.4724 -14.4267 -14.4314 -14.4142 -14.4267 -13.3982 -13.4111 -14.4267 -14.4314 -13.4111 -13.4146 -15.4724 -15.4743 -14.4314 -14.4322 -15.4743 -15.4768 -14.4322 -14.4338 -14.4314 -14.4322 -13.4146 -13.4133 -14.4322 -14.4338 -13.4133 -13.4129 0 -0.116914 0 -0.0825779 -0.116914 -0.271471 -0.0825779 -0.0594909 0 -0.0825779 0 -0.114127 -0.0825779 -0.0594909 -0.114127 -0.254277 -0.271471 -0.48483 -0.0594909 -0.282113 -0.48483 -0.730068 -0.282113 -0.477111 -0.0594909 -0.282113 -0.254277 -0.429583 -0.282113 -0.477111 -0.429583 -0.253185 -0.730068 -0.941542 -0.477111 -0.667602 -0.941542 -1.15821 -0.667602 -0.863376 -0.477111 -0.667602 -0.253185 -0.379395 -0.667602 -0.863376 -0.379395 -0.537866 -1.15821 -1.37972 -0.863376 -1.0431 -1.37972 -1.59016 -1.0431 -1.23049 -0.863376 -1.0431 -0.537866 -0.705979 -1.0431 -1.23049 -0.705979 -0.885374 -1.59016 -1.79603 -1.23049 -1.42353 -1.79603 -2.00191 -1.42353 -1.60579 -1.23049 -1.42353 -0.885374 -1.04971 -1.42353 -1.60579 -1.04971 -1.22119 -2.00191 -2.18424 -1.60579 -1.7842 -2.18424 -2.36657 -1.7842 -1.95446 -1.60579 -1.7842 -1.22119 -1.397 -1.7842 -1.95446 -1.397 -1.56392 -2.36657 -2.53375 -1.95446 -2.11698 -2.53375 -2.6787 -2.11698 -2.27236 -1.95446 -2.11698 -1.56392 -1.72739 -2.11698 -2.27236 -1.72739 -1.88965 -2.6787 -2.80467 -2.27236 -2.4216 -2.80467 -2.92936 -2.4216 -2.57036 -2.27236 -2.4216 -1.88965 -2.04964 -2.4216 -2.57036 -2.04964 -2.20736 -2.92936 -3.06178 -2.57036 -2.71441 -3.06178 -3.19943 -2.71441 -2.85486 -2.57036 -2.71441 -2.20736 -2.3652 -2.71441 -2.85486 -2.3652 -2.52925 -3.19943 -3.33866 -2.85486 -3.00197 -3.33866 -3.43999 -3.00197 -3.14945 -2.85486 -3.00197 -2.52925 -2.69189 -3.00197 -3.14945 -2.69189 -2.85316 -3.43999 -3.49576 -3.14945 -3.3322 -3.49576 -3.83497 -3.3322 -3.49845 -3.14945 -3.3322 -2.85316 -3.0314 -3.3322 -3.49845 -3.0314 -3.20987 -3.83497 -4.52246 -3.49845 -3.40005 -4.52246 -5.37823 -3.40005 -3.58452 -3.49845 -3.40005 -3.20987 -3.3911 -3.40005 -3.58452 -3.3911 -3.56609 -5.37823 -5.77101 -3.58452 -4.34573 -5.77101 -6.05259 -4.34573 -4.87507 -3.58452 -4.34573 -3.56609 -3.47035 -4.34573 -4.87507 -3.47035 -3.47399 -6.05259 -6.20438 -4.87507 -5.19276 -6.20438 -6.45698 -5.19276 -5.47088 -4.87507 -5.19276 -3.47399 -4.1287 -5.19276 -5.47088 -4.1287 -4.57524 -6.45698 -6.60761 -5.47088 -5.77783 -6.60761 -6.81819 -5.77783 -6.03255 -5.47088 -5.77783 -4.57524 -4.91862 -5.77783 -6.03255 -4.91862 -5.2276 -6.81819 -6.98329 -6.03255 -6.26833 -6.98329 -7.15099 -6.26833 -6.48947 -6.03255 -6.26833 -5.2276 -5.50464 -6.26833 -6.48947 -5.50464 -5.78683 -7.15099 -7.32711 -6.48947 -6.7122 -7.32711 -7.51276 -6.7122 -6.94183 -6.48947 -6.7122 -5.78683 -6.0438 -6.7122 -6.94183 -6.0438 -6.3191 -7.51276 -7.70769 -6.94183 -7.18364 -7.70769 -7.91093 -7.18364 -7.4325 -6.94183 -7.18364 -6.3191 -6.60777 -7.18364 -7.4325 -6.60777 -6.89673 -7.91093 -8.12226 -7.4325 -7.68514 -8.12226 -8.34169 -7.68514 -7.9452 -7.4325 -7.68514 -6.89673 -7.1798 -7.68514 -7.9452 -7.1798 -7.45833 -8.34169 -8.56977 -7.9452 -8.22984 -8.56977 -8.80933 -8.22984 -8.57899 -7.9452 -8.22984 -7.45833 -7.73159 -8.22984 -8.57899 -7.73159 -7.98899 -8.80933 -9.0738 -8.57899 -9.11157 -9.0738 -9.37957 -9.11157 -9.30237 -8.57899 -9.11157 -7.98899 -8.24047 -9.11157 -9.30237 -8.24047 -8.55601 -9.37957 -9.6964 -9.30237 -9.4674 -9.6964 -10.0545 -9.4674 -9.54797 -9.30237 -9.4674 -8.55601 -8.76674 -9.4674 -9.54797 -8.76674 -8.81219 -10.0545 -10.2926 -9.54797 -9.61067 -10.2926 -10.4025 -9.61067 -9.65166 -9.54797 -9.61067 -8.81219 -8.84159 -9.61067 -9.65166 -8.84159 -8.85375 -10.4025 -10.4714 -9.65166 -9.67145 -10.4714 -10.5242 -9.67145 -9.67574 -9.65166 -9.67145 -8.85375 -8.84931 -9.67145 -9.67574 -8.84931 -8.8227 -10.5242 -10.5693 -9.67574 -9.66531 -10.5693 -10.6092 -9.66531 -9.64141 -9.67574 -9.66531 -8.8227 -8.77662 -9.66531 -9.64141 -8.77662 -8.71114 -10.6092 -10.6529 -9.64141 -9.59913 -10.6529 -10.729 -9.59913 -9.57184 -9.64141 -9.59913 -8.71114 -8.62819 -9.59913 -9.57184 -8.62819 -8.46005 -10.729 -10.8463 -9.57184 -9.70518 -10.8463 -10.9873 -9.70518 -9.88747 -9.57184 -9.70518 -8.46005 -8.5682 -9.70518 -9.88747 -8.5682 -8.77312 -10.9873 -11.1315 -9.88747 -10.0371 -11.1315 -11.2716 -10.0371 -10.1928 -9.88747 -10.0371 -8.77312 -8.94974 -10.0371 -10.1928 -8.94974 -9.12925 -11.2716 -11.4107 -10.1928 -10.3506 -11.4107 -11.5495 -10.3506 -10.4996 -10.1928 -10.3506 -9.12925 -9.2903 -10.3506 -10.4996 -9.2903 -9.44952 -11.5495 -11.6884 -10.4996 -10.6462 -11.6884 -11.8282 -10.6462 -10.7918 -10.4996 -10.6462 -9.44952 -9.60816 -10.6462 -10.7918 -9.60816 -9.75953 -11.8282 -11.9726 -10.7918 -10.9389 -11.9726 -12.1088 -10.9389 -11.0804 -10.7918 -10.9389 -9.75953 -9.90765 -10.9389 -11.0804 -9.90765 -10.0533 -12.1088 -12.2425 -11.0804 -11.2126 -12.2425 -12.3666 -11.2126 -11.3566 -11.0804 -11.2126 -10.0533 -10.2 -11.2126 -11.3566 -10.2 -10.3475 -12.3666 -12.4752 -11.3566 -11.5127 -12.4752 -12.5012 -11.5127 -11.6016 -11.3566 -11.5127 -10.3475 -10.4811 -11.5127 -11.6016 -10.4811 -10.6243 -12.5012 -12.6499 -11.6016 -11.6153 -12.6499 -12.7849 -11.6153 -11.746 -11.6016 -11.6153 -10.6243 -10.7944 -11.6153 -11.746 -10.7944 -10.8895 -12.7849 -12.9158 -11.746 -11.8931 -12.9158 -13.0285 -11.8931 