# vtk DataFile Version 3.0
#This file was generated by the deal.II library on 2015/9/1 at 17:12:57
ASCII
DATASET UNSTRUCTURED_GRID

POINTS 11912 double
0 0 0
0.05 0 0
0 0.05 0
0.05 0.05 0
0.05 0 0
0.1 0 0
0.05 0.05 0
0.1 0.05 0
0.1 0 0
0.15 0 0
0.1 0.05 0
0.15 0.05 0
0.15 0 0
0.2 0 0
0.15 0.05 0
0.2 0.05 0
0.2 0 0
0.25 0 0
0.2 0.05 0
0.25 0.05 0
0.25 0 0
0.3 0 0
0.25 0.05 0
0.3 0.05 0
0.3 0 0
0.35 0 0
0.3 0.05 0
0.35 0.05 0
0.35 0 0
0.4 0 0
0.35 0.05 0
0.4 0.05 0
0.4 0 0
0.45 0 0
0.4 0.05 0
0.45 0.05 0
0.45 0 0
0.5 0 0
0.45 0.05 0
0.5 0.05 0
0.5 0 0
0.55 0 0
0.5 0.05 0
0.55 0.05 0
0.55 0 0
0.6 0 0
0.55 0.05 0
0.6 0.05 0
0.6 0 0
0.65 0 0
0.6 0.05 0
0.65 0.05 0
0.65 0 0
0.7 0 0
0.65 0.05 0
0.7 0.05 0
0.7 0 0
0.75 0 0
0.7 0.05 0
0.75 0.05 0
0.75 0 0
0.8 0 0
0.75 0.05 0
0.8 0.05 0
0.8 0 0
0.85 0 0
0.8 0.05 0
0.85 0.05 0
0.85 0 0
0.9 0 0
0.85 0.05 0
0.9 0.05 0
0.9 0 0
0.95 0 0
0.9 0.05 0
0.95 0.05 0
0.95 0 0
1 0 0
0.95 0.05 0
1 0.05 0
1 0 0
1.05 0 0
1 0.05 0
1.05 0.05 0
1.05 0 0
1.1 0 0
1.05 0.05 0
1.1 0.05 0
1.1 0 0
1.15 0 0
1.1 0.05 0
1.15 0.05 0
1.15 0 0
1.2 0 0
1.15 0.05 0
1.2 0.05 0
1.2 0 0
1.25 0 0
1.2 0.05 0
1.25 0.05 0
1.25 0 0
1.3 0 0
1.25 0.05 0
1.3 0.05 0
0.1 0.05 0
0.15 0.05 0
0.1 0.1 0
0.15 0.1 0
0.15 0.05 0
0.2 0.05 0
0.15 0.1 0
0.2 0.1 0
0.2 0.05 0
0.25 0.05 0
0.2 0.1 0
0.25 0.1 0
0.25 0.05 0
0.3 0.05 0
0.25 0.1 0
0.3 0.1 0
0.2 0.1 0
0.25 0.1 0
0.2 0.15 0
0.25 0.15 0
0.25 0.1 0
0.3 0.1 0
0.25 0.15 0
0.3 0.15 0
0.85 0.45 0
0.9 0.45 0
0.85 0.5 0
0.9 0.5 0
0.9 0.45 0
0.95 0.45 0
0.9 0.5 0
0.95 0.5 0
1.45 0.45 0
1.5 0.45 0
1.45 0.5 0
1.5 0.5 0
1.9 0.45 0
1.95 0.45 0
1.9 0.5 0
1.95 0.5 0
1.95 0.45 0
2 0.45 0
1.95 0.5 0
2 0.5 0
0.65 0.5 0
0.7 0.5 0
0.65 0.55 0
0.7 0.55 0
0.85 0.5 0
0.9 0.5 0
0.85 0.55 0
0.9 0.55 0
0.9 0.5 0
0.95 0.5 0
0.9 0.55 0
0.95 0.55 0
1.9 0.5 0
1.95 0.5 0
1.9 0.55 0
1.95 0.55 0
1.95 0.5 0
2 0.5 0
1.95 0.55 0
2 0.55 0
0.2 0.85 0
0.25 0.85 0
0.2 0.9 0
0.25 0.9 0
0.25 0.85 0
0.3 0.85 0
0.25 0.9 0
0.3 0.9 0
0.1 0.9 0
0.15 0.9 0
0.1 0.95 0
0.15 0.95 0
0.15 0.9 0
0.2 0.9 0
0.15 0.95 0
0.2 0.95 0
0.2 0.9 0
0.25 0.9 0
0.2 0.95 0
0.25 0.95 0
0.25 0.9 0
0.3 0.9 0
0.25 0.95 0
0.3 0.95 0
0 0.95 0
0.05 0.95 0
0 1 0
0.05 1 0
0.05 0.95 0
0.1 0.95 0
0.05 1 0
0.1 1 0
0.1 0.95 0
0.15 0.95 0
0.1 1 0
0.15 1 0
0.15 0.95 0
0.2 0.95 0
0.15 1 0
0.2 1 0
0.2 0.95 0
0.25 0.95 0
0.2 1 0
0.25 1 0
0.25 0.95 0
0.3 0.95 0
0.25 1 0
0.3 1 0
0.3 0.95 0
0.35 0.95 0
0.3 1 0
0.35 1 0
0.35 0.95 0
0.4 0.95 0
0.35 1 0
0.4 1 0
0.4 0.95 0
0.45 0.95 0
0.4 1 0
0.45 1 0
0.45 0.95 0
0.5 0.95 0
0.45 1 0
0.5 1 0
0.5 0.95 0
0.55 0.95 0
0.5 1 0
0.55 1 0
0.55 0.95 0
0.6 0.95 0
0.55 1 0
0.6 1 0
0.6 0.95 0
0.65 0.95 0
0.6 1 0
0.65 1 0
0.65 0.95 0
0.7 0.95 0
0.65 1 0
0.7 1 0
0.7 0.95 0
0.75 0.95 0
0.7 1 0
0.75 1 0
0.75 0.95 0
0.8 0.95 0
0.75 1 0
0.8 1 0
0.8 0.95 0
0.85 0.95 0
0.8 1 0
0.85 1 0
0.85 0.95 0
0.9 0.95 0
0.85 1 0
0.9 1 0
0.9 0.95 0
0.95 0.95 0
0.9 1 0
0.95 1 0
0.95 0.95 0
1 0.95 0
0.95 1 0
1 1 0
1 0.95 0
1.05 0.95 0
1 1 0
1.05 1 0
1.05 0.95 0
1.1 0.95 0
1.05 1 0
1.1 1 0
1.1 0.95 0
1.15 0.95 0
1.1 1 0
1.15 1 0
1.15 0.95 0
1.2 0.95 0
1.15 1 0
1.2 1 0
1.2 0.95 0
1.25 0.95 0
1.2 1 0
1.25 1 0
1.25 0.95 0
1.3 0.95 0
1.25 1 0
1.3 1 0
1.3 0 0
1.325 0 0
1.3 0.025 0
1.325 0.025 0
1.325 0 0
1.35 0 0
1.325 0.025 0
1.35 0.025 0
1.3 0.025 0
1.325 0.025 0
1.3 0.05 0
1.325 0.05 0
1.325 0.025 0
1.35 0.025 0
1.325 0.05 0
1.35 0.05 0
1.35 0 0
1.375 0 0
1.35 0.025 0
1.375 0.025 0
1.375 0 0
1.4 0 0
1.375 0.025 0
1.4 0.025 0
1.35 0.025 0
1.375 0.025 0
1.35 0.05 0
1.375 0.05 0
1.375 0.025 0
1.4 0.025 0
1.375 0.05 0
1.4 0.05 0
1.4 0 0
1.425 0 0
1.4 0.025 0
1.425 0.025 0
1.425 0 0
1.45 0 0
1.425 0.025 0
1.45 0.025 0
1.4 0.025 0
1.425 0.025 0
1.4 0.05 0
1.425 0.05 0
1.425 0.025 0
1.45 0.025 0
1.425 0.05 0
1.45 0.05 0
1.45 0 0
1.475 0 0
1.45 0.025 0
1.475 0.025 0
1.475 0 0
1.5 0 0
1.475 0.025 0
1.5 0.025 0
1.45 0.025 0
1.475 0.025 0
1.45 0.05 0
1.475 0.05 0
1.475 0.025 0
1.5 0.025 0
1.475 0.05 0
1.5 0.05 0
1.5 0 0
1.525 0 0
1.5 0.025 0
1.525 0.025 0
1.525 0 0
1.55 0 0
1.525 0.025 0
1.55 0.025 0
1.5 0.025 0
1.525 0.025 0
1.5 0.05 0
1.525 0.05 0
1.525 0.025 0
1.55 0.025 0
1.525 0.05 0
1.55 0.05 0
1.55 0 0
1.575 0 0
1.55 0.025 0
1.575 0.025 0
1.575 0 0
1.6 0 0
1.575 0.025 0
1.6 0.025 0
1.55 0.025 0
1.575 0.025 0
1.55 0.05 0
1.575 0.05 0
1.575 0.025 0
1.6 0.025 0
1.575 0.05 0
1.6 0.05 0
1.6 0 0
1.625 0 0
1.6 0.025 0
1.625 0.025 0
1.625 0 0
1.65 0 0
1.625 0.025 0
1.65 0.025 0
1.6 0.025 0
1.625 0.025 0
1.6 0.05 0
1.625 0.05 0
1.625 0.025 0
1.65 0.025 0
1.625 0.05 0
1.65 0.05 0
1.65 0 0
1.675 0 0
1.65 0.025 0
1.675 0.025 0
1.675 0 0
1.7 0 0
1.675 0.025 0
1.7 0.025 0
1.65 0.025 0
1.675 0.025 0
1.65 0.05 0
1.675 0.05 0
1.675 0.025 0
1.7 0.025 0
1.675 0.05 0
1.7 0.05 0
1.7 0 0
1.725 0 0
1.7 0.025 0
1.725 0.025 0
1.725 0 0
1.75 0 0
1.725 0.025 0
1.75 0.025 0
1.7 0.025 0
1.725 0.025 0
1.7 0.05 0
1.725 0.05 0
1.725 0.025 0
1.75 0.025 0
1.725 0.05 0
1.75 0.05 0
1.75 0 0
1.775 0 0
1.75 0.025 0
1.775 0.025 0
1.775 0 0
1.8 0 0
1.775 0.025 0
1.8 0.025 0
1.75 0.025 0
1.775 0.025 0
1.75 0.05 0
1.775 0.05 0
1.775 0.025 0
1.8 0.025 0
1.775 0.05 0
1.8 0.05 0
1.8 0 0
1.825 0 0
1.8 0.025 0
1.825 0.025 0
1.825 0 0
1.85 0 0
1.825 0.025 0
1.85 0.025 0
1.8 0.025 0
1.825 0.025 0
1.8 0.05 0
1.825 0.05 0
1.825 0.025 0
1.85 0.025 0
1.825 0.05 0
1.85 0.05 0
1.85 0 0
1.875 0 0
1.85 0.025 0
1.875 0.025 0
1.875 0 0
1.9 0 0
1.875 0.025 0
1.9 0.025 0
1.85 0.025 0
1.875 0.025 0
1.85 0.05 0
1.875 0.05 0
1.875 0.025 0
1.9 0.025 0
1.875 0.05 0
1.9 0.05 0
1.9 0 0
1.925 0 0
1.9 0.025 0
1.925 0.025 0
1.925 0 0
1.95 0 0
1.925 0.025 0
1.95 0.025 0
1.9 0.025 0
1.925 0.025 0
1.9 0.05 0
1.925 0.05 0
1.925 0.025 0
1.95 0.025 0
1.925 0.05 0
1.95 0.05 0
1.95 0 0
1.975 0 0
1.95 0.025 0
1.975 0.025 0
1.975 0 0
2 0 0
1.975 0.025 0
2 0.025 0
1.95 0.025 0
1.975 0.025 0
1.95 0.05 0
1.975 0.05 0
1.975 0.025 0
2 0.025 0
1.975 0.05 0
2 0.05 0
0 0.05 0
0.025 0.05 0
0 0.075 0
0.025 0.075 0
0.025 0.05 0
0.05 0.05 0
0.025 0.075 0
0.05 0.075 0
0 0.075 0
0.025 0.075 0
0 0.1 0
0.025 0.1 0
0.025 0.075 0
0.05 0.075 0
0.025 0.1 0
0.05 0.1 0
0.05 0.05 0
0.075 0.05 0
0.05 0.075 0
0.075 0.075 0
0.075 0.05 0
0.1 0.05 0
0.075 0.075 0
0.1 0.075 0
0.05 0.075 0
0.075 0.075 0
0.05 0.1 0
0.075 0.1 0
0.075 0.075 0
0.1 0.075 0
0.075 0.1 0
0.1 0.1 0
0.3 0.05 0
0.325 0.05 0
0.3 0.075 0
0.325 0.075 0
0.325 0.05 0
0.35 0.05 0
0.325 0.075 0
0.35 0.075 0
0.3 0.075 0
0.325 0.075 0
0.3 0.1 0
0.325 0.1 0
0.325 0.075 0
0.35 0.075 0
0.325 0.1 0
0.35 0.1 0
0.35 0.05 0
0.375 0.05 0
0.35 0.075 0
0.375 0.075 0
0.375 0.05 0
0.4 0.05 0
0.375 0.075 0
0.4 0.075 0
0.35 0.075 0
0.375 0.075 0
0.35 0.1 0
0.375 0.1 0
0.375 0.075 0
0.4 0.075 0
0.375 0.1 0
0.4 0.1 0
0.4 0.05 0
0.425 0.05 0
0.4 0.075 0
0.425 0.075 0
0.425 0.05 0
0.45 0.05 0
0.425 0.075 0
0.45 0.075 0
0.4 0.075 0
0.425 0.075 0
0.4 0.1 0
0.425 0.1 0
0.425 0.075 0
0.45 0.075 0
0.425 0.1 0
0.45 0.1 0
0.45 0.05 0
0.475 0.05 0
0.45 0.075 0
0.475 0.075 0
0.475 0.05 0
0.5 0.05 0
0.475 0.075 0
0.5 0.075 0
0.45 0.075 0
0.475 0.075 0
0.45 0.1 0
0.475 0.1 0
0.475 0.075 0
0.5 0.075 0
0.475 0.1 0
0.5 0.1 0
0.5 0.05 0
0.525 0.05 0
0.5 0.075 0
0.525 0.075 0
0.525 0.05 0
0.55 0.05 0
0.525 0.075 0
0.55 0.075 0
0.5 0.075 0
0.525 0.075 0
0.5 0.1 0
0.525 0.1 0
0.525 0.075 0
0.55 0.075 0
0.525 0.1 0
0.55 0.1 0
0.55 0.05 0
0.575 0.05 0
0.55 0.075 0
0.575 0.075 0
0.575 0.05 0
0.6 0.05 0
0.575 0.075 0
0.6 0.075 0
0.55 0.075 0
0.575 0.075 0
0.55 0.1 0
0.575 0.1 0
0.575 0.075 0
0.6 0.075 0
0.575 0.1 0
0.6 0.1 0
0.6 0.05 0
0.625 0.05 0
0.6 0.075 0
0.625 0.075 0
0.625 0.05 0
0.65 0.05 0
0.625 0.075 0
0.65 0.075 0
0.6 0.075 0
0.625 0.075 0
0.6 0.1 0
0.625 0.1 0
0.625 0.075 0
0.65 0.075 0
0.625 0.1 0
0.65 0.1 0
0.65 0.05 0
0.675 0.05 0
0.65 0.075 0
0.675 0.075 0
0.675 0.05 0
0.7 0.05 0
0.675 0.075 0
0.7 0.075 0
0.65 0.075 0
0.675 0.075 0
0.65 0.1 0
0.675 0.1 0
0.675 0.075 0
0.7 0.075 0
0.675 0.1 0
0.7 0.1 0
0.7 0.05 0
0.725 0.05 0
0.7 0.075 0
0.725 0.075 0
0.725 0.05 0
0.75 0.05 0
0.725 0.075 0
0.75 0.075 0
0.7 0.075 0
0.725 0.075 0
0.7 0.1 0
0.725 0.1 0
0.725 0.075 0
0.75 0.075 0
0.725 0.1 0
0.75 0.1 0
0.75 0.05 0
0.775 0.05 0
0.75 0.075 0
0.775 0.075 0
0.775 0.05 0
0.8 0.05 0
0.775 0.075 0
0.8 0.075 0
0.75 0.075 0
0.775 0.075 0
0.75 0.1 0
0.775 0.1 0
0.775 0.075 0
0.8 0.075 0
0.775 0.1 0
0.8 0.1 0
0.8 0.05 0
0.825 0.05 0
0.8 0.075 0
0.825 0.075 0
0.825 0.05 0
0.85 0.05 0
0.825 0.075 0
0.85 0.075 0
0.8 0.075 0
0.825 0.075 0
0.8 0.1 0
0.825 0.1 0
0.825 0.075 0
0.85 0.075 0
0.825 0.1 0
0.85 0.1 0
0.85 0.05 0
0.875 0.05 0
0.85 0.075 0
0.875 0.075 0
0.875 0.05 0
0.9 0.05 0
0.875 0.075 0
0.9 0.075 0
0.85 0.075 0
0.875 0.075 0
0.85 0.1 0
0.875 0.1 0
0.875 0.075 0
0.9 0.075 0
0.875 0.1 0
0.9 0.1 0
0.9 0.05 0
0.925 0.05 0
0.9 0.075 0
0.925 0.075 0
0.925 0.05 0
0.95 0.05 0
0.925 0.075 0
0.95 0.075 0
0.9 0.075 0
0.925 0.075 0
0.9 0.1 0
0.925 0.1 0
0.925 0.075 0
0.95 0.075 0
0.925 0.1 0
0.95 0.1 0
0.95 0.05 0
0.975 0.05 0
0.95 0.075 0
0.975 0.075 0
0.975 0.05 0
1 0.05 0
0.975 0.075 0
1 0.075 0
0.95 0.075 0
0.975 0.075 0
0.95 0.1 0
0.975 0.1 0
0.975 0.075 0
1 0.075 0
0.975 0.1 0
1 0.1 0
1 0.05 0
1.025 0.05 0
1 0.075 0
1.025 0.075 0
1.025 0.05 0
1.05 0.05 0
1.025 0.075 0
1.05 0.075 0
1 0.075 0
1.025 0.075 0
1 0.1 0
1.025 0.1 0
1.025 0.075 0
1.05 0.075 0
1.025 0.1 0
1.05 0.1 0
1.05 0.05 0
1.075 0.05 0
1.05 0.075 0
1.075 0.075 0
1.075 0.05 0
1.1 0.05 0
1.075 0.075 0
1.1 0.075 0
1.05 0.075 0
1.075 0.075 0
1.05 0.1 0
1.075 0.1 0
1.075 0.075 0
1.1 0.075 0
1.075 0.1 0
1.1 0.1 0
1.1 0.05 0
1.125 0.05 0
1.1 0.075 0
1.125 0.075 0
1.125 0.05 0
1.15 0.05 0
1.125 0.075 0
1.15 0.075 0
1.1 0.075 0
1.125 0.075 0
1.1 0.1 0
1.125 0.1 0
1.125 0.075 0
1.15 0.075 0
1.125 0.1 0
1.15 0.1 0
1.15 0.05 0
1.175 0.05 0
1.15 0.075 0
1.175 0.075 0
1.175 0.05 0
1.2 0.05 0
1.175 0.075 0
1.2 0.075 0
1.15 0.075 0
1.175 0.075 0
1.15 0.1 0
1.175 0.1 0
1.175 0.075 0
1.2 0.075 0
1.175 0.1 0
1.2 0.1 0
1.2 0.05 0
1.225 0.05 0
1.2 0.075 0
1.225 0.075 0
1.225 0.05 0
1.25 0.05 0
1.225 0.075 0
1.25 0.075 0
1.2 0.075 0
1.225 0.075 0
1.2 0.1 0
1.225 0.1 0
1.225 0.075 0
[...]
POINT_DATA 11912
SCALARS x_displacement double 1
LOOKUP_TABLE default
0 -1.53852 0 -0.877696 -1.53852 -2.68077 -0.877696 -1.79309 -2.68077 -3.60543 -1.79309 -2.58673 -3.60543 -4.38627 -2.58673 -3.28685 -4.38627 -5.08145 -3.28685 -3.91169 -5.08145 -5.74847 -3.91169 -4.48285 -5.74847 -6.42872 -4.48285 -5.04384 -6.42872 -7.13272 -5.04384 -5.61974 -7.13272 -7.8354 -5.61974 -6.22462 -7.8354 -8.51135 -6.22462 -6.85124 -8.51135 -9.15103 -6.85124 -7.49053 -9.15103 -9.75919 -7.49053 -8.13753 -9.75919 -10.3439 -8.13753 -8.78699 -10.3439 -10.9123 -8.78699 -9.43323 -10.9123 -11.473 -9.43323 -10.0701 -11.473 -12.037 -10.0701 -10.6909 -12.037 -12.6142 -10.6909 -11.2902 -12.6142 -13.2089 -11.2902 -11.8663 -13.2089 -13.819 -11.8663 -12.421 -13.819 -14.4394 -12.421 -12.9575 -14.4394 -15.0686 -12.9575 -13.4776 -15.0686 -15.7124 -13.4776 -13.9823 -15.7124 -16.3715 -13.9823 -14.472 -16.3715 -17.0192 -14.472 -14.9359 -17.0192 -17.5859 -14.9359 -15.3578 -17.5859 -17.9878 -15.3578 -15.7252 -1.79309 -2.58673 -1.18271 -1.7922 -2.58673 -3.28685 -1.7922 -2.35628 -3.28685 -3.91169 -2.35628 -2.86446 -3.91169 -4.48285 -2.86446 -3.29581 -2.35628 -2.86446 -1.55691 -1.96729 -2.86446 -3.29581 -1.96729 -2.323 -1.02152 -1.13117 -0.00979563 -0.00986836 -1.13117 -1.18276 -0.00986836 -0.0101969 -1.28261 -1.27422 0.000620577 0.0019658 -2.10637 -2.35597 0.00444352 0.00434528 -2.35597 -2.41062 0.00434528 0.00429205 -0.152856 -0.0966395 0.366901 0.49798 -0.00979563 -0.00986836 1.00107 1.111 -0.00986836 -0.0101969 1.111 1.16235 0.00444352 0.00434528 2.11501 2.36452 0.00434528 0.00429205 2.36452 2.4191 1.54244 1.95259 2.3501 2.85777 1.95259 2.30792 2.85777 3.28851 1.17758 1.7865 1.79539 2.58939 1.7865 2.3501 2.58939 3.28934 2.3501 2.85777 3.28934 3.91354 2.85777 3.28851 3.91354 4.48379 0 0.87898 0 1.54628 0.87898 1.79539 1.54628 2.69233 1.79539 2.58939 2.69233 3.61812 2.58939 3.28934 3.61812 4.39863 3.28934 3.91354 4.39863 5.09266 3.91354 4.48379 5.09266 5.75801 4.48379 5.04378 5.75801 6.4361 5.04378 5.61876 6.4361 7.13736 5.61876 6.22281 7.13736 7.8366 6.22281 6.84872 7.8366 8.50873 6.84872 7.48752 8.50873 9.14485 7.48752 8.13408 9.14485 9.75028 8.13408 8.78301 9.75028 10.3333 8.78301 9.42863 10.3333 10.9009 9.42863 10.065 10.9009 11.4616 10.065 10.6854 11.4616 12.0261 10.6854 11.2848 12.0261 12.6038 11.2848 11.8616 12.6038 13.199 11.8616 12.4173 13.199 13.8096 12.4173 12.955 13.8096 14.4309 12.955 13.4762 14.4309 15.0618 13.4762 13.9819 15.0618 15.708 13.9819 14.4724 15.708 16.3698 14.4724 14.9365 16.3698 17.0193 14.9365 15.3585 17.0193 17.5866 15.3585 15.7257 17.5866 17.9885 -17.9878 -18.1361 -16.8565 -16.9835 -18.1361 -18.2412 -16.9835 -17.1228 -16.8565 -16.9835 -15.7252 -15.8945 -16.9835 -17.1228 -15.8945 -16.0427 -18.2412 -18.3538 -17.1228 -17.2606 -18.3538 -18.4161 -17.2606 -17.3802 -17.1228 -17.2606 -16.0427 -16.1683 -17.2606 -17.3802 -16.1683 -16.2754 -18.4161 -18.4142 -17.3802 -17.4737 -18.4142 -18.8161 -17.4737 -17.5955 -17.3802 -17.4737 -16.2754 -16.3884 -17.4737 -17.5955 -16.3884 -16.4931 -18.8161 -19.0841 -17.5955 -17.7042 -19.0841 -19.3023 -17.7042 -17.8304 -17.5955 -17.7042 -16.4931 -16.5481 -17.7042 -17.8304 -16.5481 -16.6671 -19.3023 -19.463 -17.8304 -18.0932 -19.463 -19.659 -18.0932 -18.3174 -17.8304 -18.0932 -16.6671 -16.802 -18.0932 -18.3174 -16.802 -17.0205 -19.659 -19.8343 -18.3174 -18.4967 -19.8343 -19.9855 -18.4967 -18.6616 -18.3174 -18.4967 -17.0205 -17.2189 -18.4967 -18.6616 -17.2189 -17.392 -19.9855 -20.1156 -18.6616 -18.8016 -20.1156 -20.2225 -18.8016 -18.9197 -18.6616 -18.8016 -17.392 -17.5306 -18.8016 -18.9197 -17.5306 -17.6574 -20.2225 -20.3088 -18.9197 -19.021 -20.3088 -20.3778 -19.021 -19.1063 -18.9197 -19.021 -17.6574 -17.7711 -19.021 -19.1063 -17.7711 -17.8699 -20.3778 -20.4311 -19.1063 -19.1763 -20.4311 -20.4697 -19.1763 -19.2322 -19.1063 -19.1763 -17.8699 -17.954 -19.1763 -19.2322 -17.954 -18.0243 -20.4697 -20.4951 -19.2322 -19.2752 -20.4951 -20.5088 -19.2752 -19.3065 -19.2322 -19.2752 -18.0243 -18.0819 -19.2752 -19.3065 -18.0819 -18.1276 -20.5088 -20.5125 -19.3065 -19.3276 -20.5125 -20.5083 -19.3276 -19.3402 -19.3065 -19.3276 -18.1276 -18.1623 -19.3276 -19.3402 -18.1623 -18.1874 -20.5083 -20.4986 -19.3402 -19.3461 -20.4986 -20.4863 -19.3461 -19.3472 -19.3402 -19.3461 -18.1874 -18.2041 -19.3461 -19.3472 -18.2041 -18.2142 -20.4863 -20.4742 -19.3472 -19.3458 -20.4742 -20.4653 -19.3458 -19.3436 -19.3472 -19.3458 -18.2142 -18.2193 -19.3458 -19.3436 -18.2193 -18.2213 -20.4653 -20.4609 -19.3436 -19.3421 -20.4609 -20.46 -19.3421 -19.3421 -19.3436 -19.3421 -18.2213 -18.2222 -19.3421 -19.3421 -18.2222 -18.2237 0 -0.438848 0 -0.355691 -0.438848 -0.877696 -0.355691 -0.728805 0 -0.355691 0 -0.267214 -0.355691 -0.728805 -0.267214 -0.581726 -0.877696 -1.33539 -0.728805 -1.10204 -1.33539 -1.79309 -1.10204 -1.4879 -0.728805 -1.10204 -0.581726 -0.888092 -1.10204 -1.4879 -0.888092 -1.18271 -4.48285 -4.76335 -3.88933 -4.1119 -4.76335 -5.04384 -4.1119 -4.33937 -3.88933 -4.1119 -3.29581 -3.48701 -4.1119 -4.33937 -3.48701 -3.65132 -5.04384 -5.33179 -4.33937 -4.58237 -5.33179 -5.61974 -4.58237 -4.8433 -4.33937 -4.58237 -3.65132 -3.82291 -4.58237 -4.8433 -3.82291 -4.02891 -5.61974 -5.92218 -4.8433 -5.11887 -5.92218 -6.22462 -5.11887 -5.40612 -4.8433 -5.11887 -4.02891 -4.28695 -5.11887 -5.40612 -4.28695 -4.55641 -6.22462 -6.53793 -5.40612 -5.70552 -6.53793 -6.85124 -5.70552 -6.01691 -5.40612 -5.70552 -4.55641 -4.84669 -5.70552 -6.01691 -4.84669 -5.15804 -6.85124 -7.17089 -6.01691 -6.33446 -7.17089 -7.49053 -6.33446 -6.66056 -6.01691 -6.33446 -5.15804 -5.48423 -6.33446 -6.66056 -5.48423 -5.82002 -7.49053 -7.81403 -6.66056 -6.99213 -7.81403 -8.13753 -6.99213 -7.32951 -6.66056 -6.99213 -5.82002 -6.16671 -6.99213 -7.32951 -6.16671 -6.51995 -8.13753 -8.46226 -7.32951 -7.66971 -8.46226 -8.78699 -7.66971 -8.01274 -7.32951 -7.66971 -6.51995 -6.87837 -7.66971 -8.01274 -6.87837 -7.24183 -8.78699 -9.11011 -8.01274 -8.35661 -9.11011 -9.43323 -8.35661 -8.70031 -8.01274 -8.35661 -7.24183 -7.60918 -8.35661 -8.70031 -7.60918 -7.97858 -9.43323 -9.75167 -8.70031 -9.04176 -9.75167 -10.0701 -9.04176 -9.37866 -8.70031 -9.04176 -7.97858 -8.34556 -9.04176 -9.37866 -8.34556 -8.70794 -10.0701 -10.3805 -9.37866 -9.70917 -10.3805 -10.6909 -9.70917 -10.0305 -9.37866 -9.70917 -8.70794 -9.05872 -9.70917 -10.0305 -9.05872 -9.39693 -10.6909 -10.9905 -10.0305 -10.342 -10.9905 -11.2902 -10.342 -10.6416 -10.0305 -10.342 -9.39693 -9.71637 -10.342 -10.6416 -9.71637 -10.0186 -11.2902 -11.5783 -10.6416 -10.93 -11.5783 -11.8663 -10.93 -11.2071 -10.6416 -10.93 -10.0186 -10.3008 -10.93 -11.2071 -10.3008 -10.5669 -11.8663 -12.1437 -11.2071 -11.4738 -12.1437 -12.421 -11.4738 -11.7316 -11.2071 -11.4738 -10.5669 -10.8167 -11.4738 -11.7316 -10.8167 -11.0547 -12.421 -12.6893 -11.7316 -11.9812 -12.6893 -12.9575 -11.9812 -12.224 -11.7316 -11.9812 -11.0547 -11.2815 -11.9812 -12.224 -11.2815 -11.4997 -12.9575 -13.2175 -12.224 -12.4599 -13.2175 -13.4776 -12.4599 -12.6892 -12.224 -12.4599 -11.4997 -11.71 -12.4599 -12.6892 -11.71 -11.9132 -13.4776 -13.7299 -12.6892 -12.9121 -13.7299 -13.9823 -12.9121 -13.1286 -12.6892 -12.9121 -11.9132 -12.1092 -12.9121 -13.1286 -12.1092 -12.2992 -13.9823 -14.2272 -13.1286 -13.3416 -14.2272 -14.472 -13.3416 -13.547 -13.1286 -13.3416 -12.2992 -12.4806 -13.3416 -13.547 -12.4806 -12.6533 -14.472 -14.7039 -13.547 -13.7483 -14.7039 -14.9359 -13.7483 -13.9399 -13.547 -13.7483 -12.6533 -12.8164 -13.7483 -13.9399 -12.8164 -12.9726 -14.9359 -15.1468 -13.9399 -14.1273 -15.1468 -15.3578 -14.1273 -14.3077 -13.9399 -14.1273 -12.9726 -13.1225 -14.1273 -14.3077 -13.1225 -13.2711 -15.3578 -15.5415 -14.3077 -14.4827 -15.5415 -15.7252 -14.4827 -14.6472 -14.3077 -14.4827 -13.2711 -13.4187 -14.4827 -14.6472 -13.4187 -13.5614 -15.7252 -15.8945 -14.6472 -14.7955 -15.8945 -16.0427 -14.7955 -14.9302 -14.6472 -14.7955 -13.5614 -13.6935 -14.7955 -14.9302 -13.6935 -13.8174 -16.0427 -16.1683 -14.9302 -15.0541 -16.1683 -16.2754 -15.0541 -15.17 -14.9302 -15.0541 -13.8174 -13.9377 -15.0541 -15.17 -13.9377 -14.056 -16.2754 -16.3884 -15.17 -15.278 -16.3884 -16.4931 -15.278 -15.3905 -15.17 -15.278 -14.056 -14.1745 -15.278 -15.3905 -14.1745 -14.3081 -16.4931 -16.5481 -15.3905 -15.5564 -16.5481 -16.6671 -15.5564 -15.6993 -15.3905 -15.5564 -14.3081 -14.4476 -15.5564 -15.6993 -14.4476 -14.5819 -16.6671 -16.802 -15.6993 -15.7344 -16.802 -17.0205 -15.7344 -15.8886 -15.6993 -15.7344 -14.5819 -14.7033 -15.7344 -15.8886 -14.7033 -14.7836 -17.0205 -17.2189 -15.8886 -15.9999 -17.2189 -17.392 -15.9999 -16.1506 -15.8886 -15.9999 -14.7836 -14.7709 -15.9999 -16.1506 -14.7709 -14.9384 -17.392 -17.5306 -16.1506 -16.2942 -17.5306 -17.6574 -16.2942 -16.4327 -16.1506 -16.2942 -14.9384 -15.1034 -16.2942 -16.4327 -15.1034 -15.2433 -17.6574 -17.7711 -16.4327 -16.5567 -17.7711 -17.8699 -16.5567 -16.6666 -16.4327 -16.5567 -15.2433 -15.3718 -16.5567 -16.6666 -15.3718 -15.4959 -17.8699 -17.954 -16.6666 -16.763 -17.954 -18.0243 -16.763 -16.8456 -16.6666 -16.763 -15.4959 -15.6018 -16.763 -16.8456 -15.6018 -15.6963 -18.0243 -18.0819 -16.8456 -16.9156 -18.0819 -18.1276 -16.9156 -16.973 -16.8456 -16.9156 -15.6963 -15.7774 -16.9156 -16.973 -15.7774 -15.8442 -18.1276 -18.1623 -16.973 -17.0184 -18.1623 -18.1874 -17.0184 -17.0527 -16.973 -17.0184 -15.8442 -15.8975 -17.0184 -17.0527 -15.8975 -15.9389 -18.1874 -18.2041 -17.0527 -17.0772 -18.2041 -18.2142 -17.0772 -17.0931 -17.0527 -17.0772 -15.9389 -15.9692 -17.0772 -17.0931 -15.9692 -15.9891 -18.2142 -18.2193 -17.0931 -17.1021 -18.2193 -18.2213 -17.1021 -17.1063 -17.0931 -17.1021 -15.9891 -16.0001 -17.1021 -17.1063 -16.0001 -16.0049 -18.2213 -18.2222 -17.1063 -17.1083 -18.2222 -18.2237 -17.1083 -17.1108 -17.1063 -17.1083 -16.0049 -16.0068 -17.1083 -17.1108 -16.0068 -16.0096 0 -0.267214 0 -0.18161 -0.267214 -0.581726 -0.18161 -0.438703 0 -0.18161 0 -0.0734172 -0.18161 -0.438703 -0.0734172 -0.229003 -0.581726 -0.888092 -0.438703 -0.666969 -0.888092 -1.18271 -0.666969 -0.909327 -0.438703 -0.666969 -0.229003 -0.416018 -0.666969 -0.909327 -0.416018 -0.637716 -1.18271 -1.48745 -0.909327 -1.17323 -1.48745 -1.7922 -1.17323 -1.44037 -0.909327 -1.17323 -0.637716 -0.866857 -1.17323 -1.44037 -0.866857 -1.10572 -1.7922 -2.07424 -1.44037 -1.7008 -2.07424 -2.35628 -1.7008 -1.9566 -1.44037 -1.7008 -1.10572 -1.34265 -1.7008 -1.9566 -1.34265 -1.55691 -3.29581 -3.48701 -2.8094 -2.95083 -3.48701 -3.65132 -2.95083 -3.08359 -2.8094 -2.95083 -2.323 -2.48767 -2.95083 -3.08359 -2.48767 -2.63221 -3.65132 -3.82291 -3.08359 -3.19776 -3.82291 -4.02891 -3.19776 -3.31176 -3.08359 -3.19776 -2.63221 -2.7635 -3.19776 -3.31176 -2.7635 -2.89738 -4.02891 -4.28695 -3.31176 -3.47801 -4.28695 -4.55641 -3.47801 -3.70401 -3.31176 -3.47801 -2.89738 -3.04288 -3.47801 -3.70401 -3.04288 -3.17684 -4.55641 -4.84669 -3.70401 -3.94485 -4.84669 -5.15804 -3.94485 -4.2212 -3.70401 -3.94485 -3.17684 -3.30779 -3.94485 -4.2212 -3.30779 -3.4404 -5.15804 -5.48423 -4.2212 -4.56133 -5.48423 -5.82002 -4.56133 -4.95972 -4.2212 -4.56133 -3.4404 -3.60197 -4.56133 -4.95972 -3.60197 -3.83859 -5.82002 -6.16671 -4.95972 -5.33607 -6.16671 -6.51995 -5.33607 -5.71289 -4.95972 -5.33607 -3.83859 -4.11598 -5.33607 -5.71289 -4.11598 -4.98302 -6.51995 -6.87837 -5.71289 -6.09337 -6.87837 -7.24183 -6.09337 -6.47787 -5.71289 -6.09337 -4.98302 -5.51161 -6.09337 -6.47787 -5.51161 -5.95698 -7.24183 -7.60918 -6.47787 -6.87685 -7.60918 -7.97858 -6.87685 -7.27072 -6.47787 -6.87685 -5.95698 -6.37324 -6.87685 -7.27072 -6.37324 -6.79374 -7.97858 -8.34556 -7.27072 -7.67454 -8.34556 -8.70794 -7.67454 -8.05653 -7.27072 -7.67454 -6.79374 -7.16371 -7.67454 -8.05653 -7.16371 -7.56149 -8.70794 -9.05872 -8.05653 -8.4362 -9.05872 -9.39693 -8.4362 -8.7797 -8.05653 -8.4362 -7.56149 -7.88551 -8.4362 -8.7797 -7.88551 -8.23933 -9.39693 -9.71637 -8.7797 -9.11041 -9.71637 -10.0186 -9.11041 -9.40256 -8.7797 -9.11041 -8.23933 -8.51791 -9.11041 -9.40256 -8.51791 -8.81588 -10.0186 -10.3008 -9.40256 -9.67998 -10.3008 -10.5669 -9.67998 -9.92641 -9.40256 -9.67998 -8.81588 -9.04985 -9.67998 -9.92641 -9.04985 -9.29608 -10.5669 -10.8167 -9.92641 -10.1613 -10.8167 -11.0547 -10.1613 -10.3753 -9.92641 -10.1613 -9.29608 -9.49383 -10.1613 -10.3753 -9.49383 -9.70053 -11.0547 -11.2815 -10.3753 -10.5822 -11.2815 -11.4997 -10.5822 -10.7754 -10.3753 -10.5822 -9.70053 -9.876 -10.5822 -10.7754 -9.876 -10.057 -11.4997 -11.71 -10.7754 -10.9656 -11.71 -11.9132 -10.9656 -11.1496 -10.7754 -10.9656 -10.057 -10.2278 -10.9656 -11.1496 -10.2278 -10.4309 -11.9132 -12.1092 -11.1496 -11.3341 -12.1092 -12.2992 -11.3341 -11.51 -11.1496 -11.3341 -10.4309 -10.6438 -11.3341 -11.51 -10.6438 -10.8003 -12.2992 -12.4806 -11.51 -11.6662 -12.4806 -12.6533 -11.6662 -11.8009 -11.51 -11.6662 -10.8003 -10.9074 -11.6662 -11.8009 -10.9074 -10.9895 -12.6533 -12.8164 -11.8009 -11.9203 -12.8164 -12.9726 -11.9203 -12.0296 -11.8009 -11.9203 -10.9895 -11.0546 -11.9203 -12.0296 -11.0546 -11.1058 -12.9726 -13.1225 -12.0296 -12.13 -13.1225 -13.2711 -12.13 -12.2271 -12.0296 -12.13 -11.1058 -11.1457 -12.13 -12.2271 -11.1457 -11.1802 -13.2711 -13.4187 -12.2271 -12.3311 -13.4187 -13.5614 -12.3311 -12.4437 -12.2271 -12.3311 -11.1802 -11.218 -12.3311 -12.4437 -11.218 -11.2808 -13.5614 -13.6935 -12.4437 -12.5648 -13.6935 -13.8174 -12.5648 -12.6859 -12.4437 -12.5648 -11.2808 -11.392 -12.5648 -12.6859 -11.392 -11.5251 -13.8174 -13.9377 -12.6859 -12.808 -13.9377 -14.056 -12.808 -12.9334 -12.6859 -12.808 -11.5251 -11.6603 -12.808 -12.9334 -11.6603 -11.7952 -14.056 -14.1745 -12.9334 -13.0608 -14.1745 -14.3081 -13.0608 -13.1925 -12.9334 -13.0608 -11.7952 -11.9289 -13.0608 -13.1925 -11.9289 -12.0618 -14.3081 -14.4476 -13.1925 -13.3238 -14.4476 -14.5819 -13.3238 -13.4474 -13.1925 -13.3238 -12.0618 -12.1934 -13.3238 -13.4474 -12.1934 -12.3262 -14.5819 -14.7033 -13.4474 -13.5709 -14.7033 -14.7836 -13.5709 -13.6944 -13.4474 -13.5709 -12.3262 -12.4559 -13.5709 -13.6944 -12.4559 -12.5739 -14.7836 -14.7709 -13.6944 -13.7881 -14.7709 -14.9384 -13.7881 -13.8814 -13.6944 -13.7881 -12.5739 -12.6986 -13.7881 -13.8814 -12.6986 -12.8205 -14.9384 -15.1034 -13.8814 -13.9363 -15.1034 -15.2433 -13.9363 -14.0714 -13.8814 -13.9363 -12.8205 -12.9054 -13.9363 -14.0714 -12.9054 -12.9708 -15.2433 -15.3718 -14.0714 -14.2169 -15.3718 -15.4959 -14.2169 -14.3499 -14.0714 -14.2169 -12.9708 -13.0482 -14.2169 -14.3499 -13.0482 -13.2352 -15.4959 -15.6018 -14.3499 -14.4706 -15.6018 -15.6963 -14.4706 -14.5792 -14.3499 -14.4706 -13.2352 -13.3787 -14.4706 -14.5792 -13.3787 -13.5125 -15.6963 -15.7774 -14.5792 -14.6706 -15.7774 -15.8442 -14.6706 -14.7415 -14.5792 -14.6706 -13.5125 -13.5908 -14.6706 -14.7415 -13.5908 -13.6622 -15.8442 -15.8975 -14.7415 -14.8007 -15.8975 -15.9389 -14.8007 -14.8485 -14.7415 -14.8007 -13.6622 -13.7286 -14.8007 -14.8485 -13.7286 -13.7835 -15.9389 -15.9692 -14.8485 -14.8837 -15.9692 -15.9891 -14.8837 -14.9063 -14.8485 -14.8837 -13.7835 -13.8236 -14.8837 -14.9063 -13.8236 -13.8484 -15.9891 -16.0001 -14.9063 -14.9181 -16.0001 -16.0049 -14.9181 -14.9224 -14.9063 -14.9181 -13.8484 -13.8603 -14.9181 -14.9224 -13.8603 -13.8632 -16.0049 -16.0068 -14.9224 -14.9232 -16.0068 -16.0096 -14.9232 -14.9253 -14.9224 -14.9232 -13.8632 -13.8621 -14.9232 -14.9253 -13.8621 -13.8626 0 -0.0734172 0 -0.030466 -0.0734172 -0.229003 -0.030466 -0.00616656 0 -0.030466 0 -0.037981 -0.030466 -0.00616656 -0.037981 -0.101721 -0.229003 -0.416018 -0.00616656 -0.157 -0.416018 -0.637716 -0.157 -0.352433 -0.00616656 -0.157 -0.101721 -0.275183 -0.157 -0.352433 -0.275183 -0.13594 -0.637716 -0.866857 -0.352433 -0.559562 -0.866857 -1.10572 -0.559562 -0.791155 -0.352433 -0.559562 -0.13594 -0.241355 -0.559562 -0.791155 -0.241355 -0.460096 -1.10572 -1.34265 -0.791155 -1.00059 -1.34265 -1.55691 -1.00059 -1.19044 -0.791155 -1.00059 -0.460096 -0.651461 -1.00059 -1.19044 -0.651461 -0.83962 -1.55691 -1.7621 -1.19044 -1.3803 -1.7621 -1.96729 -1.3803 -1.56179 -1.19044 -1.3803 -0.83962 -1.00787 -1.3803 -1.56179 -1.00787 -1.17725 -1.96729 -2.14515 -1.56179 -1.73756 -2.14515 -2.323 -1.73756 -1.90446 -1.56179 -1.73756 -1.17725 -1.34497 -1.73756 -1.90446 -1.34497 -1.5075 -2.323 -2.48767 -1.90446 -2.06455 -2.48767 -2.63221 -2.06455 -2.21974 -1.90446 -2.06455 -1.5075 -1.66811 -2.06455 -2.21974 -1.66811 -1.82915 -2.63221 -2.7635 -2.21974 -2.37077 -2.7635 -2.89738 -2.37077 -2.52201 -2.21974 -2.37077 -1.82915 -1.98881 -2.37077 -2.52201 -1.98881 -2.14565 -2.89738 -3.04288 -2.52201 -2.6671 -3.04288 -3.17684 -2.6671 -2.8039 -2.52201 -2.6671 -2.14565 -2.30134 -2.6671 -2.8039 -2.30134 -2.46024 -3.17684 -3.30779 -2.8039 -2.9426 -3.30779 -3.4404 -2.9426 -3.08346 -2.8039 -2.9426 -2.46024 -2.61502 -2.9426 -3.08346 -2.61502 -2.7692 -3.4404 -3.60197 -3.08346 -3.25377 -3.60197 -3.83859 -3.25377 -3.43482 -3.08346 -3.25377 -2.7692 -2.94063 -3.25377 -3.43482 -2.94063 -3.10817 -3.83859 -4.11598 -3.43482 -3.48059 -4.11598 -4.98302 -3.48059 -3.62999 -3.43482 -3.48059 -3.10817 -3.25784 -3.48059 -3.62999 -3.25784 -3.35637 -4.98302 -5.51161 -3.62999 -3.93292 -5.51161 -5.95698 -3.93292 -4.65294 -3.62999 -3.93292 -3.35637 -3.24801 -3.93292 -4.65294 -3.24801 -3.41485 -5.95698 -6.37324 -4.65294 -5.23083 -6.37324 -6.79374 -5.23083 -5.72032 -4.65294 -5.23083 -3.41485 -3.9894 -5.23083 -5.72032 -3.9894 -4.5621 -6.79374 -7.16371 -5.72032 -6.21629 -7.16371 -7.56149 -6.21629 -6.75033 -5.72032 -6.21629 -4.5621 -5.02797 -6.21629 -6.75033 -5.02797 -5.53954 -7.56149 -7.88551 -6.75033 -7.27899 -7.88551 -8.23933 -7.27899 -7.67724 -6.75033 -7.27899 -5.53954 -6.09049 -7.27899 -7.67724 -6.09049 -6.55636 -8.23933 -8.51791 -7.67724 -8.021 -8.51791 -8.81588 -8.021 -8.25521 -7.67724 -8.021 -6.55636 -6.90595 -8.021 -8.25521 -6.90595 -7.24579 -8.81588 -9.04985 -8.25521 -8.5065 -9.04985 -9.29608 -8.5065 -8.69308 -8.25521 -8.5065 -7.24579 -7.56895 -8.5065 -8.69308 -7.56895 -7.87806 -9.29608 -9.49383 -8.69308 -8.90078 -9.49383 -9.70053 -8.90078 -9.06414 -8.69308 -8.90078 -7.87806 -8.13998 -8.90078 -9.06414 -8.13998 -8.36697 -9.70053 -9.876 -9.06414 -9.24939 -9.876 -10.057 -9.24939 -9.4281 -9.06414 -9.24939 -8.36697 -8.57553 -9.24939 -9.4281 -8.57553 -8.82943 -10.057 -10.2278 -9.4281 -9.72319 -10.2278 -10.4309 -9.72319 -9.86824 -9.4281 -9.72319 -8.82943 -8.96921 -9.72319 -9.86824 -8.96921 -9.08779 -10.4309 -10.6438 -9.86824 -9.97756 -10.6438 -10.8003 -9.97756 -10.0587 -9.86824 -9.97756 -9.08779 -9.17517 -9.97756 -10.0587 -9.17517 -9.23618 -10.8003 -10.9074 -10.0587 -10.1201 -10.9074 -10.9895 -10.1201 -10.1599 -10.0587 -10.1201 -9.23618 -9.27097 -10.1201 -10.1599 -9.27097 -9.28039 -10.9895 -11.0546 -10.1599 -10.1794 -11.0546 -11.1058 -10.1794 -10.1814 -10.1599 -10.1794 -9.28039 -9.26975 -10.1794 -10.1814 -9.26975 -9.24223 -11.1058 -11.1457 -10.1814 -10.1703 -11.1457 -11.1802 -10.1703 -10.148 -10.1814 -10.1703 -9.24223 -9.19904 -10.1703 -10.148 -9.19904 -9.13943 -11.1802 -11.218 -10.148 -10.1146 -11.218 -11.2808 -10.1146 -10.0909 -10.148 -10.1146 -9.13943 -9.06087 -10.1146 -10.0909 -9.06087 -8.95143 -11.2808 -11.392 -10.0909 -10.1817 -11.392 -11.5251 -10.1817 -10.3478 -10.0909 -10.1817 -8.95143 -8.94185 -10.1817 -10.3478 -8.94185 -9.14276 -11.5251 -11.6603 -10.3478 -10.4947 -11.6603 -11.7952 -10.4947 -10.6464 -10.3478 -10.4947 -9.14276 -9.33828 -10.4947 -10.6464 -9.33828 -9.51095 -11.7952 -11.9289 -10.6464 -10.7935 -11.9289 -12.0618 -10.7935 -10.9343 -10.6464 -10.7935 -9.51095 -9.65461 -10.7935 -10.9343 -9.65461 -9.80209 -12.0618 -12.1934 -10.9343 -11.0726 -12.1934 -12.3262 -11.0726 -11.2088 -10.9343 -11.0726 -9.80209 -9.95377 -11.0726 -11.2088 -9.95377 -10.0987 -12.3262 -12.4559 -11.2088 -11.3434 -12.4559 -12.5739 -11.3434 -11.4755 -11.2088 -11.3434 -10.0987 -10.2412 -11.3434 -11.4755 -10.2412 -10.3825 -12.5739 -12.6986 -11.4755 -11.6017 -12.6986 -12.8205 -11.6017 -11.7263 -11.4755 -11.6017 -10.3825 -10.5224 -11.6017 -11.7263 -10.5224 -10.6652 -12.8205 -12.9054 -11.7263 -11.8695 -12.9054 -12.9708 -11.8695 -11.9892 -11.7263 -11.8695 -10.6652 -10.8017 -11.8695 -11.9892 -10.8017 -10.9396 -12.9708 -13.0482 -11.9892 -12.0613 -13.0482 -13.2352 -12.0613 -12.2046 -11.9892 -12.0613 -10.9396 -11.092 -12.0613 -12.2046 -11.092 -11.1765 -13.2352 -13.3787 -12.2046 -12.447 -13.3787 -13.5125 -12