# vtk DataFile Version 3.0
#This file was generated by the deal.II library on 2015/9/1 at 17:12:52
ASCII
DATASET UNSTRUCTURED_GRID

POINTS 3200 double
0 0 0
0.05 0 0
0 0.05 0
0.05 0.05 0
0.05 0 0
0.1 0 0
0.05 0.05 0
0.1 0.05 0
0.1 0 0
0.15 0 0
0.1 0.05 0
0.15 0.05 0
0.15 0 0
0.2 0 0
0.15 0.05 0
0.2 0.05 0
0.2 0 0
0.25 0 0
0.2 0.05 0
0.25 0.05 0
0.25 0 0
0.3 0 0
0.25 0.05 0
0.3 0.05 0
0.3 0 0
0.35 0 0
0.3 0.05 0
0.35 0.05 0
0.35 0 0
0.4 0 0
0.35 0.05 0
0.4 0.05 0
0.4 0 0
0.45 0 0
0.4 0.05 0
0.45 0.05 0
0.45 0 0
0.5 0 0
0.45 0.05 0
0.5 0.05 0
0.5 0 0
0.55 0 0
0.5 0.05 0
0.55 0.05 0
0.55 0 0
0.6 0 0
0.55 0.05 0
0.6 0.05 0
0.6 0 0
0.65 0 0
0.6 0.05 0
0.65 0.05 0
0.65 0 0
0.7 0 0
0.65 0.05 0
0.7 0.05 0
0.7 0 0
0.75 0 0
0.7 0.05 0
0.75 0.05 0
0.75 0 0
0.8 0 0
0.75 0.05 0
0.8 0.05 0
0.8 0 0
0.85 0 0
0.8 0.05 0
0.85 0.05 0
0.85 0 0
0.9 0 0
0.85 0.05 0
0.9 0.05 0
0.9 0 0
0.95 0 0
0.9 0.05 0
0.95 0.05 0
0.95 0 0
1 0 0
0.95 0.05 0
1 0.05 0
1 0 0
1.05 0 0
1 0.05 0
1.05 0.05 0
1.05 0 0
1.1 0 0
1.05 0.05 0
1.1 0.05 0
1.1 0 0
1.15 0 0
1.1 0.05 0
1.15 0.05 0
1.15 0 0
1.2 0 0
1.15 0.05 0
1.2 0.05 0
1.2 0 0
1.25 0 0
1.2 0.05 0
1.25 0.05 0
1.25 0 0
1.3 0 0
1.25 0.05 0
1.3 0.05 0
1.3 0 0
1.35 0 0
1.3 0.05 0
1.35 0.05 0
1.35 0 0
1.4 0 0
1.35 0.05 0
1.4 0.05 0
1.4 0 0
1.45 0 0
1.4 0.05 0
1.45 0.05 0
1.45 0 0
1.5 0 0
1.45 0.05 0
1.5 0.05 0
1.5 0 0
1.55 0 0
1.5 0.05 0
1.55 0.05 0
1.55 0 0
1.6 0 0
1.55 0.05 0
1.6 0.05 0
1.6 0 0
1.65 0 0
1.6 0.05 0
1.65 0.05 0
1.65 0 0
1.7 0 0
1.65 0.05 0
1.7 0.05 0
1.7 0 0
1.75 0 0
1.7 0.05 0
1.75 0.05 0
1.75 0 0
1.8 0 0
1.75 0.05 0
1.8 0.05 0
1.8 0 0
1.85 0 0
1.8 0.05 0
1.85 0.05 0
1.85 0 0
1.9 0 0
1.85 0.05 0
1.9 0.05 0
1.9 0 0
1.95 0 0
1.9 0.05 0
1.95 0.05 0
1.95 0 0
2 0 0
1.95 0.05 0
2 0.05 0
0 0.05 0
0.05 0.05 0
0 0.1 0
0.05 0.1 0
0.05 0.05 0
0.1 0.05 0
0.05 0.1 0
0.1 0.1 0
0.1 0.05 0
0.15 0.05 0
0.1 0.1 0
0.15 0.1 0
0.15 0.05 0
0.2 0.05 0
0.15 0.1 0
0.2 0.1 0
0.2 0.05 0
0.25 0.05 0
0.2 0.1 0
0.25 0.1 0
0.25 0.05 0
0.3 0.05 0
0.25 0.1 0
0.3 0.1 0
0.3 0.05 0
0.35 0.05 0
0.3 0.1 0
0.35 0.1 0
0.35 0.05 0
0.4 0.05 0
0.35 0.1 0
0.4 0.1 0
0.4 0.05 0
0.45 0.05 0
0.4 0.1 0
0.45 0.1 0
0.45 0.05 0
0.5 0.05 0
0.45 0.1 0
0.5 0.1 0
0.5 0.05 0
0.55 0.05 0
0.5 0.1 0
0.55 0.1 0
0.55 0.05 0
0.6 0.05 0
0.55 0.1 0
0.6 0.1 0
0.6 0.05 0
0.65 0.05 0
0.6 0.1 0
0.65 0.1 0
0.65 0.05 0
0.7 0.05 0
0.65 0.1 0
0.7 0.1 0
0.7 0.05 0
0.75 0.05 0
0.7 0.1 0
0.75 0.1 0
0.75 0.05 0
0.8 0.05 0
0.75 0.1 0
0.8 0.1 0
0.8 0.05 0
0.85 0.05 0
0.8 0.1 0
0.85 0.1 0
0.85 0.05 0
0.9 0.05 0
0.85 0.1 0
0.9 0.1 0
0.9 0.05 0
0.95 0.05 0
0.9 0.1 0
0.95 0.1 0
0.95 0.05 0
1 0.05 0
0.95 0.1 0
1 0.1 0
1 0.05 0
1.05 0.05 0
1 0.1 0
1.05 0.1 0
1.05 0.05 0
1.1 0.05 0
1.05 0.1 0
1.1 0.1 0
1.1 0.05 0
1.15 0.05 0
1.1 0.1 0
1.15 0.1 0
1.15 0.05 0
1.2 0.05 0
1.15 0.1 0
1.2 0.1 0
1.2 0.05 0
1.25 0.05 0
1.2 0.1 0
1.25 0.1 0
1.25 0.05 0
1.3 0.05 0
1.25 0.1 0
1.3 0.1 0
1.3 0.05 0
1.35 0.05 0
1.3 0.1 0
1.35 0.1 0
1.35 0.05 0
1.4 0.05 0
1.35 0.1 0
1.4 0.1 0
1.4 0.05 0
1.45 0.05 0
1.4 0.1 0
1.45 0.1 0
1.45 0.05 0
1.5 0.05 0
1.45 0.1 0
1.5 0.1 0
1.5 0.05 0
1.55 0.05 0
1.5 0.1 0
1.55 0.1 0
1.55 0.05 0
1.6 0.05 0
1.55 0.1 0
1.6 0.1 0
1.6 0.05 0
1.65 0.05 0
1.6 0.1 0
1.65 0.1 0
1.65 0.05 0
1.7 0.05 0
1.65 0.1 0
1.7 0.1 0
1.7 0.05 0
1.75 0.05 0
1.7 0.1 0
1.75 0.1 0
1.75 0.05 0
1.8 0.05 0
1.75 0.1 0
1.8 0.1 0
1.8 0.05 0
1.85 0.05 0
1.8 0.1 0
1.85 0.1 0
1.85 0.05 0
1.9 0.05 0
1.85 0.1 0
1.9 0.1 0
1.9 0.05 0
1.95 0.05 0
1.9 0.1 0
1.95 0.1 0
1.95 0.05 0
2 0.05 0
1.95 0.1 0
2 0.1 0
0 0.1 0
0.05 0.1 0
0 0.15 0
0.05 0.15 0
0.05 0.1 0
0.1 0.1 0
0.05 0.15 0
0.1 0.15 0
0.1 0.1 0
0.15 0.1 0
0.1 0.15 0
0.15 0.15 0
0.15 0.1 0
0.2 0.1 0
0.15 0.15 0
0.2 0.15 0
0.2 0.1 0
0.25 0.1 0
0.2 0.15 0
0.25 0.15 0
0.25 0.1 0
0.3 0.1 0
0.25 0.15 0
0.3 0.15 0
0.3 0.1 0
0.35 0.1 0
0.3 0.15 0
0.35 0.15 0
0.35 0.1 0
0.4 0.1 0
0.35 0.15 0
0.4 0.15 0
0.4 0.1 0
0.45 0.1 0
0.4 0.15 0
0.45 0.15 0
0.45 0.1 0
0.5 0.1 0
0.45 0.15 0
0.5 0.15 0
0.5 0.1 0
0.55 0.1 0
0.5 0.15 0
0.55 0.15 0
0.55 0.1 0
0.6 0.1 0
0.55 0.15 0
0.6 0.15 0
0.6 0.1 0
0.65 0.1 0
0.6 0.15 0
0.65 0.15 0
0.65 0.1 0
0.7 0.1 0
0.65 0.15 0
0.7 0.15 0
0.7 0.1 0
0.75 0.1 0
0.7 0.15 0
0.75 0.15 0
0.75 0.1 0
0.8 0.1 0
0.75 0.15 0
0.8 0.15 0
0.8 0.1 0
0.85 0.1 0
0.8 0.15 0
0.85 0.15 0
0.85 0.1 0
0.9 0.1 0
0.85 0.15 0
0.9 0.15 0
0.9 0.1 0
0.95 0.1 0
0.9 0.15 0
0.95 0.15 0
0.95 0.1 0
1 0.1 0
0.95 0.15 0
1 0.15 0
1 0.1 0
1.05 0.1 0
1 0.15 0
1.05 0.15 0
1.05 0.1 0
1.1 0.1 0
1.05 0.15 0
1.1 0.15 0
1.1 0.1 0
1.15 0.1 0
1.1 0.15 0
1.15 0.15 0
1.15 0.1 0
1.2 0.1 0
1.15 0.15 0
1.2 0.15 0
1.2 0.1 0
1.25 0.1 0
1.2 0.15 0
1.25 0.15 0
1.25 0.1 0
1.3 0.1 0
1.25 0.15 0
1.3 0.15 0
1.3 0.1 0
1.35 0.1 0
1.3 0.15 0
1.35 0.15 0
1.35 0.1 0
1.4 0.1 0
1.35 0.15 0
1.4 0.15 0
1.4 0.1 0
1.45 0.1 0
1.4 0.15 0
1.45 0.15 0
1.45 0.1 0
1.5 0.1 0
1.45 0.15 0
1.5 0.15 0
1.5 0.1 0
1.55 0.1 0
1.5 0.15 0
1.55 0.15 0
1.55 0.1 0
1.6 0.1 0
1.55 0.15 0
1.6 0.15 0
1.6 0.1 0
1.65 0.1 0
1.6 0.15 0
1.65 0.15 0
1.65 0.1 0
1.7 0.1 0
1.65 0.15 0
1.7 0.15 0
1.7 0.1 0
1.75 0.1 0
1.7 0.15 0
1.75 0.15 0
1.75 0.1 0
1.8 0.1 0
1.75 0.15 0
1.8 0.15 0
1.8 0.1 0
1.85 0.1 0
1.8 0.15 0
1.85 0.15 0
1.85 0.1 0
1.9 0.1 0
1.85 0.15 0
1.9 0.15 0
1.9 0.1 0
1.95 0.1 0
1.9 0.15 0
1.95 0.15 0
1.95 0.1 0
2 0.1 0
1.95 0.15 0
2 0.15 0
0 0.15 0
0.05 0.15 0
0 0.2 0
0.05 0.2 0
0.05 0.15 0
0.1 0.15 0
0.05 0.2 0
0.1 0.2 0
0.1 0.15 0
0.15 0.15 0
0.1 0.2 0
0.15 0.2 0
0.15 0.15 0
0.2 0.15 0
0.15 0.2 0
0.2 0.2 0
0.2 0.15 0
0.25 0.15 0
0.2 0.2 0
0.25 0.2 0
0.25 0.15 0
0.3 0.15 0
0.25 0.2 0
0.3 0.2 0
0.3 0.15 0
0.35 0.15 0
0.3 0.2 0
0.35 0.2 0
0.35 0.15 0
0.4 0.15 0
0.35 0.2 0
0.4 0.2 0
0.4 0.15 0
0.45 0.15 0
0.4 0.2 0
0.45 0.2 0
0.45 0.15 0
0.5 0.15 0
0.45 0.2 0
0.5 0.2 0
0.5 0.15 0
0.55 0.15 0
0.5 0.2 0
0.55 0.2 0
0.55 0.15 0
0.6 0.15 0
0.55 0.2 0
0.6 0.2 0
0.6 0.15 0
0.65 0.15 0
0.6 0.2 0
0.65 0.2 0
0.65 0.15 0
0.7 0.15 0
0.65 0.2 0
0.7 0.2 0
0.7 0.15 0
0.75 0.15 0
0.7 0.2 0
0.75 0.2 0
0.75 0.15 0
0.8 0.15 0
0.75 0.2 0
0.8 0.2 0
0.8 0.15 0
0.85 0.15 0
0.8 0.2 0
0.85 0.2 0
0.85 0.15 0
0.9 0.15 0
0.85 0.2 0
0.9 0.2 0
0.9 0.15 0
0.95 0.15 0
0.9 0.2 0
0.95 0.2 0
0.95 0.15 0
1 0.15 0
0.95 0.2 0
1 0.2 0
1 0.15 0
1.05 0.15 0
1 0.2 0
1.05 0.2 0
1.05 0.15 0
1.1 0.15 0
1.05 0.2 0
1.1 0.2 0
1.1 0.15 0
1.15 0.15 0
1.1 0.2 0
1.15 0.2 0
1.15 0.15 0
1.2 0.15 0
1.15 0.2 0
1.2 0.2 0
1.2 0.15 0
1.25 0.15 0
1.2 0.2 0
1.25 0.2 0
1.25 0.15 0
1.3 0.15 0
1.25 0.2 0
1.3 0.2 0
1.3 0.15 0
1.35 0.15 0
1.3 0.2 0
1.35 0.2 0
1.35 0.15 0
1.4 0.15 0
1.35 0.2 0
1.4 0.2 0
1.4 0.15 0
1.45 0.15 0
1.4 0.2 0
1.45 0.2 0
1.45 0.15 0
1.5 0.15 0
1.45 0.2 0
1.5 0.2 0
1.5 0.15 0
1.55 0.15 0
1.5 0.2 0
1.55 0.2 0
1.55 0.15 0
1.6 0.15 0
1.55 0.2 0
1.6 0.2 0
1.6 0.15 0
1.65 0.15 0
1.6 0.2 0
1.65 0.2 0
1.65 0.15 0
1.7 0.15 0
1.65 0.2 0
1.7 0.2 0
1.7 0.15 0
1.75 0.15 0
1.7 0.2 0
1.75 0.2 0
1.75 0.15 0
1.8 0.15 0
1.75 0.2 0
1.8 0.2 0
1.8 0.15 0
1.85 0.15 0
1.8 0.2 0
1.85 0.2 0
1.85 0.15 0
1.9 0.15 0
1.85 0.2 0
1.9 0.2 0
1.9 0.15 0
1.95 0.15 0
1.9 0.2 0
1.95 0.2 0
1.95 0.15 0
2 0.15 0
1.95 0.2 0
2 0.2 0
0 0.2 0
0.05 0.2 0
0 0.25 0
0.05 0.25 0
0.05 0.2 0
0.1 0.2 0
0.05 0.25 0
0.1 0.25 0
0.1 0.2 0
0.15 0.2 0
0.1 0.25 0
0.15 0.25 0
0.15 0.2 0
0.2 0.2 0
0.15 0.25 0
0.2 0.25 0
0.2 0.2 0
0.25 0.2 0
0.2 0.25 0
0.25 0.25 0
0.25 0.2 0
0.3 0.2 0
0.25 0.25 0
0.3 0.25 0
0.3 0.2 0
0.35 0.2 0
0.3 0.25 0
0.35 0.25 0
0.35 0.2 0
0.4 0.2 0
0.35 0.25 0
0.4 0.25 0
0.4 0.2 0
0.45 0.2 0
0.4 0.25 0
0.45 0.25 0
0.45 0.2 0
0.5 0.2 0
0.45 0.25 0
0.5 0.25 0
0.5 0.2 0
0.55 0.2 0
0.5 0.25 0
0.55 0.25 0
0.55 0.2 0
0.6 0.2 0
0.55 0.25 0
0.6 0.25 0
0.6 0.2 0
0.65 0.2 0
0.6 0.25 0
0.65 0.25 0
0.65 0.2 0
0.7 0.2 0
0.65 0.25 0
0.7 0.25 0
0.7 0.2 0
0.75 0.2 0
0.7 0.25 0
0.75 0.25 0
0.75 0.2 0
0.8 0.2 0
0.75 0.25 0
0.8 0.25 0
0.8 0.2 0
0.85 0.2 0
0.8 0.25 0
0.85 0.25 0
0.85 0.2 0
0.9 0.2 0
0.85 0.25 0
0.9 0.25 0
0.9 0.2 0
0.95 0.2 0
0.9 0.25 0
0.95 0.25 0
0.95 0.2 0
1 0.2 0
0.95 0.25 0
1 0.25 0
1 0.2 0
1.05 0.2 0
1 0.25 0
1.05 0.25 0
1.05 0.2 0
1.1 0.2 0
1.05 0.25 0
1.1 0.25 0
1.1 0.2 0
1.15 0.2 0
1.1 0.25 0
1.15 0.25 0
1.15 0.2 0
1.2 0.2 0
1.15 0.25 0
1.2 0.25 0
1.2 0.2 0
1.25 0.2 0
1.2 0.25 0
1.25 0.25 0
1.25 0.2 0
1.3 0.2 0
1.25 0.25 0
1.3 0.25 0
1.3 0.2 0
1.35 0.2 0
1.3 0.25 0
1.35 0.25 0
1.35 0.2 0
1.4 0.2 0
1.35 0.25 0
1.4 0.25 0
1.4 0.2 0
1.45 0.2 0
1.4 0.25 0
1.45 0.25 0
1.45 0.2 0
1.5 0.2 0
1.45 0.25 0
1.5 0.25 0
1.5 0.2 0
1.55 0.2 0
1.5 0.25 0
1.55 0.25 0
1.55 0.2 0
1.6 0.2 0
1.55 0.25 0
1.6 0.25 0
1.6 0.2 0
1.65 0.2 0
1.6 0.25 0
1.65 0.25 0
1.65 0.2 0
1.7 0.2 0
1.65 0.25 0
1.7 0.25 0
1.7 0.2 0
1.75 0.2 0
1.7 0.25 0
1.75 0.25 0
1.75 0.2 0
1.8 0.2 0
1.75 0.25 0
1.8 0.25 0
1.8 0.2 0
1.85 0.2 0
1.8 0.25 0
1.85 0.25 0
1.85 0.2 0
1.9 0.2 0
1.85 0.25 0
1.9 0.25 0
1.9 0.2 0
1.95 0.2 0
1.9 0.25 0
1.95 0.25 0
1.95 0.2 0
2 0.2 0
1.95 0.25 0
2 0.25 0
0 0.25 0
0.05 0.25 0
0 0.3 0
0.05 0.3 0
0.05 0.25 0
0.1 0.25 0
0.05 0.3 0
0.1 0.3 0
0.1 0.25 0
0.15 0.25 0
0.1 0.3 0
0.15 0.3 0
0.15 0.25 0
0.2 0.25 0
0.15 0.3 0
0.2 0.3 0
0.2 0.25 0
0.25 0.25 0
0.2 0.3 0
0.25 0.3 0
0.25 0.25 0
0.3 0.25 0
0.25 0.3 0
0.3 0.3 0
0.3 0.25 0
0.35 0.25 0
0.3 0.3 0
0.35 0.3 0
0.35 0.25 0
0.4 0.25 0
0.35 0.3 0
0.4 0.3 0
0.4 0.25 0
0.45 0.25 0
0.4 0.3 0
0.45 0.3 0
0.45 0.25 0
0.5 0.25 0
0.45 0.3 0
0.5 0.3 0
0.5 0.25 0
0.55 0.25 0
0.5 0.3 0
0.55 0.3 0
0.55 0.25 0
0.6 0.25 0
0.55 0.3 0
0.6 0.3 0
0.6 0.25 0
0.65 0.25 0
0.6 0.3 0
0.65 0.3 0
0.65 0.25 0
0.7 0.25 0
0.65 0.3 0
0.7 0.3 0
0.7 0.25 0
0.75 0.25 0
0.7 0.3 0
0.75 0.3 0
0.75 0.25 0
0.8 0.25 0
0.75 0.3 0
0.8 0.3 0
0.8 0.25 0
0.85 0.25 0
0.8 0.3 0
0.85 0.3 0
0.85 0.25 0
0.9 0.25 0
0.85 0.3 0
0.9 0.3 0
0.9 0.25 0
0.95 0.25 0
0.9 0.3 0
0.95 0.3 0
0.95 0.25 0
1 0.25 0
0.95 0.3 0
1 0.3 0
1 0.25 0
1.05 0.25 0
1 0.3 0
1.05 0.3 0
1.05 0.25 0
1.1 0.25 0
1.05 0.3 0
1.1 0.3 0
1.1 0.25 0
1.15 0.25 0
1.1 0.3 0
1.15 0.3 0
1.15 0.25 0
1.2 0.25 0
1.15 0.3 0
1.2 0.3 0
1.2 0.25 0
1.25 0.25 0
1.2 0.3 0
1.25 0.3 0
1.25 0.25 0
1.3 0.25 0
1.25 0.3 0
1.3 0.3 0
1.3 0.25 0
1.35 0.25 0
1.3 0.3 0
1.35 0.3 0
1.35 0.25 0
1.4 0.25 0
1.35 0.3 0
1.4 0.3 0
1.4 0.25 0
1.45 0.25 0
1.4 0.3 0
1.45 0.3 0
1.45 0.25 0
1.5 0.25 0
[...]
POINT_DATA 3200
SCALARS x_displacement double 1
LOOKUP_TABLE default
0 -2.16939 0 -1.00536 -2.16939 -3.94971 -1.00536 -2.10801 -3.94971 -5.46955 -2.10801 -3.11988 -5.46955 -6.77341 -3.11988 -4.06004 -6.77341 -7.89106 -4.06004 -4.93989 -7.89106 -8.85439 -4.93989 -5.77062 -8.85439 -9.69862 -5.77062 -6.56318 -9.69862 -10.4608 -6.56318 -7.32662 -10.4608 -11.1767 -7.32662 -8.0666 -11.1767 -11.878 -8.0666 -8.79231 -11.878 -12.5886 -8.79231 -9.52517 -12.5886 -13.3226 -9.52517 -10.2729 -13.3226 -14.085 -10.2729 -11.0344 -14.085 -14.8727 -11.0344 -11.8046 -14.8727 -15.6779 -11.8046 -12.574 -15.6779 -16.4932 -12.574 -13.3356 -16.4932 -17.3241 -13.3356 -14.093 -17.3241 -18.1828 -14.093 -14.8551 -18.1828 -19.0664 -14.8551 -15.6229 -19.0664 -19.9665 -15.6229 -16.3922 -19.9665 -20.8758 -16.3922 -17.1576 -20.8758 -21.7828 -17.1576 -17.9148 -21.7828 -22.6628 -17.9148 -18.6629 -22.6628 -23.4933 -18.6629 -19.3947 -23.4933 -24.2761 -19.3947 -20.1161 -24.2761 -25.0705 -20.1161 -20.8711 -25.0705 -25.9463 -20.8711 -21.7134 -25.9463 -26.9277 -21.7134 -22.6678 -26.9277 -28.0151 -22.6678 -23.7443 -28.0151 -29.2016 -23.7443 -24.9482 -29.2016 -30.4646 -24.9482 -26.2708 -30.4646 -31.7528 -26.2708 -27.6648 -31.7528 -33.0074 -27.6648 -29.0442 -33.0074 -34.1523 -29.0442 -30.3053 -34.1523 -35.1457 -30.3053 -31.384 -35.1457 -35.9688 -31.384 -32.2635 -35.9688 -36.6401 -32.2635 -32.9433 -36.6401 -37.1798 -32.9433 -33.436 -37.1798 -37.5558 -33.436 -33.8086 -37.5558 -37.8854 -33.8086 -34.1131 0 -1.00536 0 -0.195594 -1.00536 -2.10801 -0.195594 -0.527682 -2.10801 -3.11988 -0.527682 -0.992175 -3.11988 -4.06004 -0.992175 -1.53682 -4.06004 -4.93989 -1.53682 -2.14861 -4.93989 -5.77062 -2.14861 -2.81777 -5.77062 -6.56318 -2.81777 -3.53163 -6.56318 -7.32662 -3.53163 -4.27446 -7.32662 -8.0666 -4.27446 -5.02655 -8.0666 -8.79231 -5.02655 -5.77455 -8.79231 -9.52517 -5.77455 -6.52863 -9.52517 -10.2729 -6.52863 -7.29016 -10.2729 -11.0344 -7.29016 -8.05422 -11.0344 -11.8046 -8.05422 -8.81362 -11.8046 -12.574 -8.81362 -9.55852 -12.574 -13.3356 -9.55852 -10.2833 -13.3356 -14.093 -10.2833 -10.9885 -14.093 -14.8551 -10.9885 -11.6747 -14.8551 -15.6229 -11.6747 -12.3439 -15.6229 -16.3922 -12.3439 -12.9997 -16.3922 -17.1576 -12.9997 -13.6472 -17.1576 -17.9148 -13.6472 -14.2934 -17.9148 -18.6629 -14.2934 -14.9541 -18.6629 -19.3947 -14.9541 -15.6435 -19.3947 -20.1161 -15.6435 -16.3816 -20.1161 -20.8711 -16.3816 -17.1927 -20.8711 -21.7134 -17.1927 -18.0983 -21.7134 -22.6678 -18.0983 -19.1141 -22.6678 -23.7443 -19.1141 -20.2504 -23.7443 -24.9482 -20.2504 -21.5087 -24.9482 -26.2708 -21.5087 -22.8736 -26.2708 -27.6648 -22.8736 -24.2811 -27.6648 -29.0442 -24.2811 -25.6192 -29.0442 -30.3053 -25.6192 -26.8073 -30.3053 -31.384 -26.8073 -27.7985 -31.384 -32.2635 -27.7985 -28.5859 -32.2635 -32.9433 -28.5859 -29.2065 -32.9433 -33.436 -29.2065 -29.6827 -33.436 -33.8086 -29.6827 -30.0207 -33.8086 -34.1131 -30.0207 -30.2645 0 -0.195594 0 0.580093 -0.195594 -0.527682 0.580093 0.890493 -0.527682 -0.992175 0.890493 0.933571 -0.992175 -1.53682 0.933571 0.757935 -1.53682 -2.14861 0.757935 0.395328 -2.14861 -2.81777 0.395328 -0.13325 -2.81777 -3.53163 -0.13325 -0.786911 -3.53163 -4.27446 -0.786911 -1.52305 -4.27446 -5.02655 -1.52305 -2.30621 -5.02655 -5.77455 -2.30621 -3.10571 -5.77455 -6.52863 -3.10571 -3.90426 -6.52863 -7.29016 -3.90426 -4.69642 -7.29016 -8.05422 -4.69642 -5.47874 -8.05422 -8.81362 -5.47874 -6.24181 -8.81362 -9.55852 -6.24181 -6.97591 -9.55852 -10.2833 -6.97591 -7.67643 -10.2833 -10.9885 -7.67643 -8.33681 -10.9885 -11.6747 -8.33681 -8.95415 -11.6747 -12.3439 -8.95415 -9.53516 -12.3439 -12.9997 -9.53516 -10.0924 -12.9997 -13.6472 -10.0924 -10.6406 -13.6472 -14.2934 -10.6406 -11.1946 -14.2934 -14.9541 -11.1946 -11.7727 -14.9541 -15.6435 -11.7727 -12.4005 -15.6435 -16.3816 -12.4005 -13.1 -16.3816 -17.1927 -13.1 -13.884 -17.1927 -18.0983 -13.884 -14.7645 -18.0983 -19.1141 -14.7645 -15.7543 -19.1141 -20.2504 -15.7543 -16.8616 -20.2504 -21.5087 -16.8616 -18.0831 -21.5087 -22.8736 -18.0831 -19.3974 -22.8736 -24.2811 -19.3974 -20.758 -24.2811 -25.6192 -20.758 -22.0723 -25.6192 -26.8073 -22.0723 -23.2379 -26.8073 -27.7985 -23.2379 -24.1973 -27.7985 -28.5859 -24.1973 -24.9622 -28.5859 -29.2065 -24.9622 -25.5447 -29.2065 -29.6827 -25.5447 -25.9669 -29.6827 -30.0207 -25.9669 -26.2543 -30.0207 -30.2645 -26.2543 -26.4788 0 0.580093 0 1.17691 0.580093 0.890493 1.17691 1.94617 0.890493 0.933571 1.94617 2.33615 0.933571 0.757935 2.33615 2.37363 0.757935 0.395328 2.37363 2.09457 0.395328 -0.13325 2.09457 1.57742 -0.13325 -0.786911 1.57742 0.915014 -0.786911 -1.52305 0.915014 0.156556 -1.52305 -2.30621 0.156556 -0.665284 -2.30621 -3.10571 -0.665284 -1.51392 -3.10571 -3.90426 -1.51392 -2.3567 -3.90426 -4.69642 -2.3567 -3.17431 -4.69642 -5.47874 -3.17431 -3.95237 -5.47874 -6.24181 -3.95237 -4.68084 -6.24181 -6.97591 -4.68084 -5.35155 -6.97591 -7.67643 -5.35155 -5.95594 -7.67643 -8.33681 -5.95594 -6.49254 -8.33681 -8.95415 -6.49254 -6.97304 -8.95415 -9.53516 -6.97304 -7.40725 -9.53516 -10.0924 -7.40725 -7.80813 -10.0924 -10.6406 -7.80813 -8.19651 -10.6406 -11.1946 -8.19651 -8.59656 -11.1946 -11.7727 -8.59656 -9.03216 -11.7727 -12.4005 -9.03216 -9.52521 -12.4005 -13.1 -9.52521 -10.0944 -13.1 -13.884 -10.0944 -10.7555 -13.884 -14.7645 -10.7555 -11.5232 -14.7645 -15.7543 -11.5232 -12.4102 -15.7543 -16.8616 -12.4102 -13.4237 -16.8616 -18.0831 -13.4237 -14.5596 -18.0831 -19.3974 -14.5596 -15.7954 -19.3974 -20.758 -15.7954 -17.0834 -20.758 -22.0723 -17.0834 -18.3606 -22.0723 -23.2379 -18.3606 -19.5276 -23.2379 -24.1973 -19.5276 -20.5257 -24.1973 -24.9622 -20.5257 -21.3138 -24.9622 -25.5447 -21.3138 -21.9004 -25.5447 -25.9669 -21.9004 -22.3159 -25.9669 -26.2543 -22.3159 -22.5842 -26.2543 -26.4788 -22.5842 -22.7688 0 1.17691 0 1.10478 1.17691 1.94617 1.10478 2.06144 1.94617 2.33615 2.06144 2.59202 2.33615 2.37363 2.59202 2.63298 2.37363 2.09457 2.63298 2.30593 2.09457 1.57742 2.30593 1.76485 1.57742 0.915014 1.76485 1.10833 0.915014 0.156556 1.10833 0.392489 0.156556 -0.665284 0.392489 -0.346555 -0.665284 -1.51392 -0.346555 -1.07786 -1.51392 -2.3567 -1.07786 -1.77569 -2.3567 -3.17431 -1.77569 -2.42844 -3.17431 -3.95237 -2.42844 -3.03082 -3.95237 -4.68084 -3.03082 -3.57942 -4.68084 -5.35155 -3.57942 -4.07097 -5.35155 -5.95594 -4.07097 -4.50889 -5.95594 -6.49254 -4.50889 -4.89533 -6.49254 -6.97304 -4.89533 -5.23361 -6.97304 -7.40725 -5.23361 -5.53195 -7.40725 -7.80813 -5.53195 -5.80644 -7.80813 -8.19651 -5.80644 -6.07597 -8.19651 -8.59656 -6.07597 -6.35863 -8.59656 -9.03216 -6.35863 -6.6717 -9.03216 -9.52521 -6.6717 -7.031 -9.52521 -10.0944 -7.031 -7.45154 -10.0944 -10.7555 -7.45154 -7.94827 -10.7555 -11.5232 -7.94827 -8.53694 -11.5232 -12.4102 -8.53694 -9.23431 -12.4102 -13.4237 -9.23431 -10.0565 -13.4237 -14.5596 -10.0565 -11.016 -14.5596 -15.7954 -11.016 -12.1088 -15.7954 -17.0834 -12.1088 -13.2989 -17.0834 -18.3606 -13.2989 -14.5253 -18.3606 -19.5276 -14.5253 -15.706 -19.5276 -20.5257 -15.706 -16.753 -20.5257 -21.3138 -16.753 -17.6044 -21.3138 -21.9004 -17.6044 -18.2426 -21.9004 -22.3159 -18.2426 -18.6824 -22.3159 -22.5842 -18.6824 -18.9564 -22.5842 -22.7688 -18.9564 -19.0886 0 1.10478 0 1.13353 1.10478 2.06144 1.13353 2.09471 2.06144 2.59202 2.09471 2.52871 2.59202 2.63298 2.52871 2.42664 2.63298 2.30593 2.42664 2.05877 2.30593 1.76485 2.05877 1.57218 1.76485 1.10833 1.57218 1.03335 1.10833 0.392489 1.03335 0.477385 0.392489 -0.346555 0.477385 -0.0723015 -0.346555 -1.07786 -0.0723015 -0.597598 -1.07786 -1.77569 -0.597598 -1.09431 -1.77569 -2.42844 -1.09431 -1.55759 -2.42844 -3.03082 -1.55759 -1.98195 -3.03082 -3.57942 -1.98195 -2.36763 -3.57942 -4.07097 -2.36763 -2.7185 -4.07097 -4.50889 -2.7185 -3.03537 -4.50889 -4.89533 -3.03537 -3.31996 -4.89533 -5.23361 -3.31996 -3.58098 -5.23361 -5.53195 -3.58098 -3.82506 -5.53195 -5.80644 -3.82506 -4.05709 -5.80644 -6.07597 -4.05709 -4.28274 -6.07597 -6.35863 -4.28274 -4.51094 -6.35863 -6.6717 -4.51094 -4.75301 -6.6717 -7.031 -4.75301 -5.02018 -7.031 -7.45154 -5.02018 -5.32224 -7.45154 -7.94827 -5.32224 -5.66779 -7.94827 -8.53694 -5.66779 -6.06585 -8.53694 -9.23431 -6.06585 -6.52862 -9.23431 -10.0565 -6.52862 -7.07573 -10.0565 -11.016 -7.07573 -7.73817 -11.016 -12.1088 -7.73817 -8.55334 -12.1088 -13.2989 -8.55334 -9.53315 -13.2989 -14.5253 -9.53315 -10.6377 -14.5253 -15.706 -10.6377 -11.8027 -15.706 -16.753 -11.8027 -12.9107 -16.753 -17.6044 -12.9107 -13.8469 -17.6044 -18.2426 -13.8469 -14.5376 -18.2426 -18.6824 -14.5376 -14.9947 -18.6824 -18.9564 -14.9947 -15.2492 -18.9564 -19.0886 -15.2492 -15.3302 0 1.13353 0 1.58392 1.13353 2.09471 1.58392 2.47367 2.09471 2.52871 2.47367 2.49203 2.52871 2.42664 2.49203 2.23544 2.42664 2.05877 2.23544 1.9283 2.05877 1.57218 1.9283 1.58535 1.57218 1.03335 1.58535 1.21609 1.03335 0.477385 1.21609 0.83817 0.477385 -0.0723015 0.83817 0.464958 -0.0723015 -0.597598 0.464958 0.103142 -0.597598 -1.09431 0.103142 -0.24066 -1.09431 -1.55759 -0.24066 -0.560107 -1.55759 -1.98195 -0.560107 -0.857877 -1.98195 -2.36763 -0.857877 -1.14116 -2.36763 -2.7185 -1.14116 -1.4148 -2.7185 -3.03537 -1.4148 -1.68114 -3.03537 -3.31996 -1.68114 -1.93878 -3.31996 -3.58098 -1.93878 -2.18334 -3.58098 -3.82506 -2.18334 -2.41295 -3.82506 -4.05709 -2.41295 -2.62787 -4.05709 -4.28274 -2.62787 -2.82999 -4.28274 -4.51094 -2.82999 -3.02398 -4.51094 -4.75301 -3.02398 -3.21715 -4.75301 -5.02018 -3.21715 -3.41791 -5.02018 -5.32224 -3.41791 -3.63403 -5.32224 -5.66779 -3.63403 -3.87183 -5.66779 -6.06585 -3.87183 -4.13638 -6.06585 -6.52862 -4.13638 -4.43275 -6.52862 -7.07573 -4.43275 -4.76901 -7.07573 -7.73817 -4.76901 -5.16158 -7.73817 -8.55334 -5.16158 -5.64123 -8.55334 -9.53315 -5.64123 -6.25121 -9.53315 -10.6377 -6.25121 -7.02862 -10.6377 -11.8027 -7.02862 -7.9659 -11.8027 -12.9107 -7.9659 -9.00661 -12.9107 -13.8469 -9.00661 -10.0036 -13.8469 -14.5376 -10.0036 -10.7537 -14.5376 -14.9947 -10.7537 -11.2134 -14.9947 -15.2492 -11.2134 -11.4815 -15.2492 -15.3302 -11.4815 -11.5559 0 1.58392 0 2.10254 1.58392 2.47367 2.10254 2.55048 2.47367 2.49203 2.55048 2.36981 2.49203 2.23544 2.36981 2.16222 2.23544 1.9283 2.16222 1.94185 1.9283 1.58535 1.94185 1.71012 1.58535 1.21609 1.71012 1.47338 1.21609 0.83817 1.47338 1.23023 0.83817 0.464958 1.23023 0.980329 0.464958 0.103142 0.980329 0.727083 0.103142 -0.24066 0.727083 0.474582 -0.24066 -0.560107 0.474582 0.2259 -0.560107 -0.857877 0.2259 -0.0170762 -0.857877 -1.14116 -0.0170762 -0.254655 -1.14116 -1.4148 -0.254655 -0.488759 -1.4148 -1.68114 -0.488759 -0.72023 -1.68114 -1.93878 -0.72023 -0.945384 -1.93878 -2.18334 -0.945384 -1.15691 -2.18334 -2.41295 -1.15691 -1.34988 -2.41295 -2.62787 -1.34988 -1.52375 -2.62787 -2.82999 -1.52375 -1.68058 -2.82999 -3.02398 -1.68058 -1.82384 -3.02398 -3.21715 -1.82384 -1.95861 -3.21715 -3.41791 -1.95861 -2.0914 -3.41791 -3.63403 -2.0914 -2.2293 -3.63403 -3.87183 -2.2293 -2.3792 -3.87183 -4.13638 -2.3792 -2.54758 -4.13638 -4.43275 -2.54758 -2.74072 -4.43275 -4.76901 -2.74072 -2.96509 -4.76901 -5.16158 -2.96509 -3.22729 -5.16158 -5.64123 -3.22729 -3.53368 -5.64123 -6.25121 -3.53368 -3.88897 -6.25121 -7.02862 -3.88897 -4.29615 -7.02862 -7.9659 -4.29615 -4.77696 -7.9659 -9.00661 -4.77696 -5.38117 -9.00661 -10.0036 -5.38117 -6.11891 -10.0036 -10.7537 -6.11891 -6.83432 -10.7537 -11.2134 -6.83432 -7.37779 -11.2134 -11.4815 -7.37779 -7.6619 -11.4815 -11.5559 -7.6619 -7.75406 0 2.10254 0 1.70552 2.10254 2.55048 1.70552 1.99737 2.55048 2.36981 1.99737 1.91319 2.36981 2.16222 1.91319 1.75119 2.16222 1.94185 1.75119 1.57355 1.94185 1.71012 1.57355 1.39488 1.71012 1.47338 1.39488 1.22314 1.47338 1.23023 1.22314 1.05836 1.23023 0.980329 1.05836 0.895351 0.980329 0.727083 0.895351 0.73085 0.727083 0.474582 0.73085 0.564482 0.474582 0.2259 0.564482 0.39772 0.2259 -0.0170762 0.39772 0.234157 -0.0170762 -0.254655 0.234157 0.0770845 -0.254655 -0.488759 0.0770845 -0.0727646 -0.488759 -0.72023 -0.0727646 -0.215769 -0.72023 -0.945384 -0.215769 -0.351054 -0.945384 -1.15691 -0.351054 -0.475905 -1.15691 -1.34988 -0.475905 -0.587558 -1.34988 -1.52375 -0.587558 -0.685291 -1.52375 -1.68058 -0.685291 -0.770371 -1.68058 -1.82384 -0.770371 -0.845041 -1.82384 -1.95861 -0.845041 -0.912218 -1.95861 -2.0914 -0.912218 -0.97561 -2.0914 -2.2293 -0.97561 -1.03962 -2.2293 -2.3792 -1.03962 -1.10913 -2.3792 -2.54758 -1.10913 -1.18947 -2.54758 -2.74072 -1.18947 -1.28657 -2.74072 -2.96509 -1.28657 -1.40666 -2.96509 -3.22729 -1.40666 -1.55495 -3.22729 -3.53368 -1.55495 -1.73279 -3.53368 -3.88897 -1.73279 -1.93467 -3.88897 -4.29615 -1.93467 -2.14982 -4.29615 -4.77696 -2.14982 -2.36761 -4.77696 -5.38117 -2.36761 -2.57728 -5.38117 -6.11891 -2.57728 -2.78208 -6.11891 -6.83432 -2.78208 -3.05958 -6.83432 -7.37779 -3.05958 -3.43191 -7.37779 -7.6619 -3.43191 -3.92248 -7.6619 -7.75406 -3.92248 -3.95954 0 1.70552 0 -4.52063e-11 1.70552 1.99737 -4.52063e-11 -2.45707e-11 1.99737 1.91319 -2.45707e-11 -1.58029e-11 1.91319 1.75119 -1.58029e-11 -1.13813e-11 1.75119 1.57355 -1.13813e-11 -1.01061e-11 1.57355 1.39488 -1.01061e-11 -5.72986e-12 1.39488 1.22314 -5.72986e-12 -4.57322e-12 1.22314 1.05836 -4.57322e-12 -3.77765e-12 1.05836 0.895351 -3.77765e-12 -3.81114e-13 0.895351 0.73085 -3.81114e-13 2.58067e-12 0.73085 0.564482 2.58067e-12 3.25409e-12 0.564482 0.39772 3.25409e-12 4.08307e-12 0.39772 0.234157 4.08307e-12 6.5996e-12 0.234157 0.0770845 6.5996e-12 9.81017e-12 0.0770845 -0.0727646 9.81017e-12 1.22297e-11 -0.0727646 -0.215769 1.22297e-11 1.32158e-11 -0.215769 -0.351054 1.32158e-11 1.3663e-11 -0.351054 -0.475905 1.3663e-11 1.67302e-11 -0.475905 -0.587558 1.67302e-11 1.90578e-11 -0.587558 -0.685291 1.90578e-11 2.00366e-11 -0.685291 -0.770371 2.00366e-11 2.17385e-11 -0.770371 -0.845041 2.17385e-11 2.24289e-11 -0.845041 -0.912218 2.24289e-11 2.12496e-11 -0.912218 -0.97561 2.12496e-11 2.16959e-11 -0.97561 -1.03962 2.16959e-11 2.14263e-11 -1.03962 -1.10913 2.14263e-11 1.88173e-11 -1.10913 -1.18947 1.88173e-11 1.69695e-11 -1.18947 -1.28657 1.69695e-11 1.67965e-11 -1.28657 -1.40666 1.67965e-11 1.591e-11 -1.40666 -1.55495 1.591e-11 1.38991e-11 -1.55495 -1.73279 1.38991e-11 1.35846e-11 -1.73279 -1.93467 1.35846e-11 1.02305e-11 -1.93467 -2.14982 1.02305e-11 1.03156e-11 -2.14982 -2.36761 1.03156e-11 1.29531e-11 -2.36761 -2.57728 1.29531e-11 1.30549e-11 -2.57728 -2.78208 1.30549e-11 1.13413e-11 -2.78208 -3.05958 1.13413e-11 6.31104e-12 -3.05958 -3.43191 6.31104e-12 1.75046e-12 -3.43191 -3.92248 1.75046e-12 1.72409e-12 -3.92248 -3.95954 1.72409e-12 2.17735e-12 0 -4.52063e-11 0 -1.70552 -4.52063e-11 -2.45707e-11 -1.70552 -1.99737 -2.45707e-11 -1.58029e-11 -1.99737 -1.91319 -1.58029e-11 -1.13813e-11 -1.91319 -1.75119 -1.13813e-11 -1.01061e-11 -1.75119 -1.57355 -1.01061e-11 -5.72986e-12 -1.57355 -1.39488 -5.72986e-12 -4.57322e-12 -1.39488 -1.22314 -4.57322e-12 -3.77765e-12 -1.22314 -1.05836 -3.77765e-12 -3.81114e-13 -1.05836 -0.895351 -3.81114e-13 2.58067e-12 -0.895351 -0.73085 2.58067e-12 3.25409e-12 -0.73085 -0.564482 3.25409e-12 4.08307e-12 -0.564482 -0.39772 4.08307e-12 6.5996e-12 -0.39772 -0.234157 6.5996e-12 9.81017e-12 -0.234157 -0.0770845 9.81017e-12 1.22297e-11 -0.0770845 0.0727646 1.22297e-11 1.32158e-11 0.0727646 0.215769 1.32158e-11 1.3663e-11 0.215769 0.351054 1.3663e-11 1.67302e-11 0.351054 0.475905 1.67302e-11 1.90578e-11 0.475905 0.587558 1.90578e-11 2.00366e-11 0.587558 0.685291 2.00366e-11 2.17385e-11 0.685291 0.770371 2.17385e-11 2.24289e-11 0.770371 0.845041 2.24289e-11 2.12496e-11 0.845041 0.912218 2.12496e-11 2.16959e-11 0.912218 0.97561 2.16959e-11 2.14263e-11 0.97561 1.03962 2.14263e-11 1.88173e-11 1.03962 1.10913 1.88173e-11 1.69695e-11 1.10913 1.18947 1.69695e-11 1.67965e-11 1.18947 1.28657 1.67965e-11 1.591e-11 1.28657 1.40666 1.591e-11 1.38991e-11 1.40666 1.55495 1.38991e-11 1.35846e-11 1.55495 1.73279 1.35846e-11 1.02305e-11 1.73279 1.93467 1.02305e-11 1.03156e-11 1.93467 2.14982 1.03156e-11 1.29531e-11 2.14982 2.36761 1.29531e-11 1.30549e-11 2.36761 2.57728 1.30549e-11 1.13413e-11 2.57728 2.78208 1.13413e-11 6.31104e-12 2.78208 3.05958 6.31104e-12 1.75046e-12 3.05958 3.43191 1.75046e-12 1.72409e-12 3.43191 3.92248 1.72409e-12 2.17735e-12 3.92248 3.95954 0 -1.70552 0 -2.10254 -1.70552 -1.99737 -2.10254 -2.55048 -1.99737 -1.91319 -2.55048 -2.36981 -1.91319 -1.75119 -2.36981 -2.16222 -1.75119 -1.57355 -2.16222 -1.94185 -1.57355 -1.39488 -1.94185 -1.71012 -1.39488 -1.22314 -1.71012 -1.47338 -1.22314 -1.05836 -1.47338 -1.23023 -1.05836 -0.895351 -1.23023 -0.980329 -0.895351 -0.73085 -0.980329 -0.727083 -0.73085 -0.564482 -0.727083 -0.474582 -0.564482 -0.39772 -0.474582 -0.2259 -0.39772 -0.234157 -0.2259 0.0170762 -0.234157 -0.0770845 0.0170762 0.254655 -0.0770845 0.0727646 0.254655 0.488759 0.0727646 0.215769 0.488759 0.72023 0.215769 0.351054 0.72023 0.945384 0.351054 0.475905 0.945384 1.15691 0.475905 0.587558 1.15691 1.34988 0.587558 0.685291 1.34988 1.52375 0.685291 0.770371 1.52375 1.68058 0.770371 0.845041 1.68058 1.82384 0.845041 0.912218 1.82384 1.95861 0.912218 0.97561 1.95861 2.0914 0.97561 1.03962 2.0914 2.2293 1.03962 1.10913 2.2293 2.3792 1.10913 1.18947 2.3792 2.54758 1.18947 1.28657 2.54758 2.74072 1.28657 1.40666 2.74072 2.96509 1.40666 1.55495 2.96509 3.22729 1.55495 1.73279 3.22729 3.53368 1.73279 1.93467 3.53368 3.88897 1.93467 2.14982 3.88897 4.29615 2.14982 2.36761 4.29615 4.77696 2.36761 2.57728 4.77696 5.38117 2.57728 2.78208 5.38117 6.11891 2.78208 3.05958 6.11891 6.83432 3.05958 3.43191 6.83432 7.37779 3.43191 3.92248 7.37779 7.6619 3.92248 3.95954 7.6619 7.75406 0 -2.10254 0 -1.58392 -2.10254 -2.55048 -1.58392 -2.47367 -2.55048 -2.36981 -2.47367 -2.49203 -2.36981 -2.16222 -2.49203 -2.23544 -2.16222 -1.94185 -2.23544 -1.9283 -1.94185 -1.71012 -1.9283 -1.58535 -1.71012 -1.47338 -1.58535 -1.21609 -1.47338 -1.23023 -1.21609 -0.83817 -1.23023 -0.980329 -0.83817 -0.464958 -0.980329 -0.727083 -0.464958 -0.103142 -0.727083 -0.474582 -0.103142 0.24066 -0.474582 -0.2259 0.24066 0.560107 -0.2259 0.0170762 0.560107 0.857877 0.0170762 0.254655 0.857877 1.14116 0.254655 0.488759 1.14116 1.4148 0.488759 0.72023 1.4148 1.68114 0.72023 0.945384 1.68114 1.93878 0.945384 1.15691 1.93878 2.18334 1.15691 1.34988 2.18334 2.41295 1.34988 1.52375 2.41295 2.62787 1.52375 1.68058 2.62787 2.82999 1.68058 1.82384 2.82999 3.02398 1.82384 1.95861 3.02398 3.21715 1.95861 2.0914 3.21715 3.41791 2.0914 2.2293 3.41791 3.63403 2.2293 2.3792 3.63403 3.87183 2.3792 2.54758 3.87183 4.13638 2.54758 2.74072 4.13638 4.43275 2.74072 2.96509 4.43275 4.76901 2.96509 3.22729 4.76901 5.16158 3.22729 3.53368 5.16158 5.64123 3.53368 3.88897 5.64123 6.25121 3.88897 4.29615 6.25121 7.02862 4.29615 4.77696 7.02862 7.9659 4.77696 5.38117 7.9659 9.00661 5.38117 6.11891 9.00661 10.0036 6.11891 6.83432 10.0036 10.7537 6.83432 7.37779 10.7537 11.2134 7.37779 7.6619 11.2134 11.4815 7.6619 7.75406 11.4815 11.5559 0 -1.58392 0 -1.13353 -1.58392 -2.47367 -1.13353 -2.09471 -2.47367 -2.49203 -2.09471 -2.52871 -2.49203 -2.23544 -2.52871 -2.42664 -2.23544 -1.9283 -2.42664 -2.05877 -1.9283 -1.58535 -2.05877 -1.57218 -1.58535 -1.21609 -1.57218 -1.03335 -1.21609 -0.83817 -1.03335 -0.477385 -0.83817 -0.464958 -0.477385 0.0723015 -0.464958 -0.103142 0.0723015 0.597598 -0.103142 0.24066 0.597598 1.09431 0.24066 0.560107 1.09431 1.55759 0.560107 0.857877 1.55759 1.98195 0.857877 1.14116 1.98195 2.36763 1.14116 1.4148 2.36763 2.7185 1.4148 1.68114 2.7185 3.03537 1.68114 1.93878 3.03537 3.31996 1.93878 2.18334 3.31996 3.58098 2.18334 2.41295 3.58098 3.82506 2.41295 2.62787 3.82506 4.05709 2.62787 2.82999 4.05709 4.28274 2.82999 3.02398 4.28274 4.51094 3.02398 3.21715 4.51094 4.75301 3.21715 3.41791 4.75301 5.02018 3.41791 3.63403 5.02018 5.32224 3.63403 3.87183 5.32224 5.66779 3.87183 4.13638 5.66779 6.06585 4.13638 4.43275 6.06585 6.52862 4.43275 4.76901 6.52862 7.07573 4.76901 5.16158 7.07573 7.73817 5.16158 5.64123 7.73817 8.55334 5.64123 6.25121 8.55334 9.53315 6.25121 7.02862 9.53315 10.6377 7.02862 7.9659 10.6377 11.8027 7.9659 9.00661 11.8027 12.9107 9.00661 10.0036 12.9107 13.8469 10.0036 10.7537 13.8469 14.5376 10.7537 11.2134 14.5376 14.9947 11.2134 11.4815 14.9947 15.2492 11.4