# vtk DataFile Version 3.0
#This file was generated by the deal.II library on 2015/8/30 at 10:13:44
ASCII
DATASET UNSTRUCTURED_GRID

POINTS 20 double
1 0 0
2 0 0
1 1 0
2 1 0
0 0 0
0.5 0 0
0 0.5 0
0.5 0.5 0
0.5 0 0
1 0 0
0.5 0.5 0
1 0.5 0
0 0.5 0
0.5 0.5 0
0 1 0
0.5 1 0
0.5 0.5 0
1 0.5 0
0.5 1 0
1 1 0

CELLS 5 25
4	0	1	3	2
4	4	5	7	6
4	8	9	11	10
4	12	13	15	14
4	16	17	19	18

CELL_TYPES 5
 9 9 9 9 9
POINT_DATA 20
SCALARS x_displacement double 1
LOOKUP_TABLE default
-61.6818 -87.1065 61.6818 87.1065 0 -30.048 0 8.98947e-14 -30.048 -61.6818 8.98947e-14 1.77636e-14 0 8.98947e-14 0 30.048 8.98947e-14 1.77636e-14 30.048 61.6818 
SCALARS y_displacement double 1
LOOKUP_TABLE default
-79.9812 -261.994 -79.9812 -261.994 0 -25.9233 0 -19.5702 -25.9233 -79.9812 -19.5702 -79.9812 0 -19.5702 0 -25.9233 -19.5702 -79.9812 -25.9233 -79.9812 
