# vtk DataFile Version 3.0
#This file was generated by the deal.II library on 2015/8/30 at 10:13:44
ASCII
DATASET UNSTRUCTURED_GRID

POINTS 20 double
1 0 0
2 0 0
1 1 0
2 1 0
0 0 0
0.5 0 0
0 0.5 0
0.5 0.5 0
0.5 0 0
1 0 0
0.5 0.5 0
1 0.5 0
0 0.5 0
0.5 0.5 0
0 1 0
0.5 1 0
0.5 0.5 0
1 0.5 0
0.5 1 0
1 1 0

CELLS 5 25
4	0	1	3	2
4	4	5	7	6
4	8	9	11	10
4	12	13	15	14
4	16	17	19	18

CELL_TYPES 5
 9 9 9 9 9
POINT_DATA 20
SCALARS x_displacement double 1
LOOKUP_TABLE default
-60.6128 -85.8701 60.6128 85.8701 0 -29.5825 0 7.35328e-14 -29.5825 -60.6128 7.35328e-14 -1.77636e-14 0 7.35328e-14 0 29.5825 7.35328e-14 -1.77636e-14 29.5825 60.6128 
SCALARS y_displacement double 1
LOOKUP_TABLE default
-78.6536 -258.191 -78.6536 -258.191 0 -25.528 0 -19.2849 -25.528 -78.6536 -19.2849 -78.6536 0 -19.2849 0 -25.528 -19.2849 -78.6536 -25.528 -78.6536 
