# vtk DataFile Version 3.0
#This file was generated by the deal.II library on 2015/9/1 at 17:13: 3
ASCII
DATASET UNSTRUCTURED_GRID

POINTS 11912 double
0 0 0
0.05 0 0
0 0.05 0
0.05 0.05 0
0.05 0 0
0.1 0 0
0.05 0.05 0
0.1 0.05 0
0.1 0 0
0.15 0 0
0.1 0.05 0
0.15 0.05 0
0.15 0 0
0.2 0 0
0.15 0.05 0
0.2 0.05 0
0.2 0 0
0.25 0 0
0.2 0.05 0
0.25 0.05 0
0.25 0 0
0.3 0 0
0.25 0.05 0
0.3 0.05 0
0.3 0 0
0.35 0 0
0.3 0.05 0
0.35 0.05 0
0.35 0 0
0.4 0 0
0.35 0.05 0
0.4 0.05 0
0.4 0 0
0.45 0 0
0.4 0.05 0
0.45 0.05 0
0.45 0 0
0.5 0 0
0.45 0.05 0
0.5 0.05 0
0.5 0 0
0.55 0 0
0.5 0.05 0
0.55 0.05 0
0.55 0 0
0.6 0 0
0.55 0.05 0
0.6 0.05 0
0.6 0 0
0.65 0 0
0.6 0.05 0
0.65 0.05 0
0.65 0 0
0.7 0 0
0.65 0.05 0
0.7 0.05 0
0.7 0 0
0.75 0 0
0.7 0.05 0
0.75 0.05 0
0.75 0 0
0.8 0 0
0.75 0.05 0
0.8 0.05 0
0.8 0 0
0.85 0 0
0.8 0.05 0
0.85 0.05 0
0.85 0 0
0.9 0 0
0.85 0.05 0
0.9 0.05 0
0.9 0 0
0.95 0 0
0.9 0.05 0
0.95 0.05 0
0.95 0 0
1 0 0
0.95 0.05 0
1 0.05 0
1 0 0
1.05 0 0
1 0.05 0
1.05 0.05 0
1.05 0 0
1.1 0 0
1.05 0.05 0
1.1 0.05 0
1.1 0 0
1.15 0 0
1.1 0.05 0
1.15 0.05 0
1.15 0 0
1.2 0 0
1.15 0.05 0
1.2 0.05 0
1.2 0 0
1.25 0 0
1.2 0.05 0
1.25 0.05 0
1.25 0 0
1.3 0 0
1.25 0.05 0
1.3 0.05 0
0.1 0.05 0
0.15 0.05 0
0.1 0.1 0
0.15 0.1 0
0.15 0.05 0
0.2 0.05 0
0.15 0.1 0
0.2 0.1 0
0.2 0.05 0
0.25 0.05 0
0.2 0.1 0
0.25 0.1 0
0.25 0.05 0
0.3 0.05 0
0.25 0.1 0
0.3 0.1 0
0.2 0.1 0
0.25 0.1 0
0.2 0.15 0
0.25 0.15 0
0.25 0.1 0
0.3 0.1 0
0.25 0.15 0
0.3 0.15 0
0.85 0.45 0
0.9 0.45 0
0.85 0.5 0
0.9 0.5 0
0.9 0.45 0
0.95 0.45 0
0.9 0.5 0
0.95 0.5 0
1.45 0.45 0
1.5 0.45 0
1.45 0.5 0
1.5 0.5 0
1.9 0.45 0
1.95 0.45 0
1.9 0.5 0
1.95 0.5 0
1.95 0.45 0
2 0.45 0
1.95 0.5 0
2 0.5 0
0.65 0.5 0
0.7 0.5 0
0.65 0.55 0
0.7 0.55 0
0.85 0.5 0
0.9 0.5 0
0.85 0.55 0
0.9 0.55 0
0.9 0.5 0
0.95 0.5 0
0.9 0.55 0
0.95 0.55 0
1.9 0.5 0
1.95 0.5 0
1.9 0.55 0
1.95 0.55 0
1.95 0.5 0
2 0.5 0
1.95 0.55 0
2 0.55 0
0.2 0.85 0
0.25 0.85 0
0.2 0.9 0
0.25 0.9 0
0.25 0.85 0
0.3 0.85 0
0.25 0.9 0
0.3 0.9 0
0.1 0.9 0
0.15 0.9 0
0.1 0.95 0
0.15 0.95 0
0.15 0.9 0
0.2 0.9 0
0.15 0.95 0
0.2 0.95 0
0.2 0.9 0
0.25 0.9 0
0.2 0.95 0
0.25 0.95 0
0.25 0.9 0
0.3 0.9 0
0.25 0.95 0
0.3 0.95 0
0 0.95 0
0.05 0.95 0
0 1 0
0.05 1 0
0.05 0.95 0
0.1 0.95 0
0.05 1 0
0.1 1 0
0.1 0.95 0
0.15 0.95 0
0.1 1 0
0.15 1 0
0.15 0.95 0
0.2 0.95 0
0.15 1 0
0.2 1 0
0.2 0.95 0
0.25 0.95 0
0.2 1 0
0.25 1 0
0.25 0.95 0
0.3 0.95 0
0.25 1 0
0.3 1 0
0.3 0.95 0
0.35 0.95 0
0.3 1 0
0.35 1 0
0.35 0.95 0
0.4 0.95 0
0.35 1 0
0.4 1 0
0.4 0.95 0
0.45 0.95 0
0.4 1 0
0.45 1 0
0.45 0.95 0
0.5 0.95 0
0.45 1 0
0.5 1 0
0.5 0.95 0
0.55 0.95 0
0.5 1 0
0.55 1 0
0.55 0.95 0
0.6 0.95 0
0.55 1 0
0.6 1 0
0.6 0.95 0
0.65 0.95 0
0.6 1 0
0.65 1 0
0.65 0.95 0
0.7 0.95 0
0.65 1 0
0.7 1 0
0.7 0.95 0
0.75 0.95 0
0.7 1 0
0.75 1 0
0.75 0.95 0
0.8 0.95 0
0.75 1 0
0.8 1 0
0.8 0.95 0
0.85 0.95 0
0.8 1 0
0.85 1 0
0.85 0.95 0
0.9 0.95 0
0.85 1 0
0.9 1 0
0.9 0.95 0
0.95 0.95 0
0.9 1 0
0.95 1 0
0.95 0.95 0
1 0.95 0
0.95 1 0
1 1 0
1 0.95 0
1.05 0.95 0
1 1 0
1.05 1 0
1.05 0.95 0
1.1 0.95 0
1.05 1 0
1.1 1 0
1.1 0.95 0
1.15 0.95 0
1.1 1 0
1.15 1 0
1.15 0.95 0
1.2 0.95 0
1.15 1 0
1.2 1 0
1.2 0.95 0
1.25 0.95 0
1.2 1 0
1.25 1 0
1.25 0.95 0
1.3 0.95 0
1.25 1 0
1.3 1 0
1.3 0 0
1.325 0 0
1.3 0.025 0
1.325 0.025 0
1.325 0 0
1.35 0 0
1.325 0.025 0
1.35 0.025 0
1.3 0.025 0
1.325 0.025 0
1.3 0.05 0
1.325 0.05 0
1.325 0.025 0
1.35 0.025 0
1.325 0.05 0
1.35 0.05 0
1.35 0 0
1.375 0 0
1.35 0.025 0
1.375 0.025 0
1.375 0 0
1.4 0 0
1.375 0.025 0
1.4 0.025 0
1.35 0.025 0
1.375 0.025 0
1.35 0.05 0
1.375 0.05 0
1.375 0.025 0
1.4 0.025 0
1.375 0.05 0
1.4 0.05 0
1.4 0 0
1.425 0 0
1.4 0.025 0
1.425 0.025 0
1.425 0 0
1.45 0 0
1.425 0.025 0
1.45 0.025 0
1.4 0.025 0
1.425 0.025 0
1.4 0.05 0
1.425 0.05 0
1.425 0.025 0
1.45 0.025 0
1.425 0.05 0
1.45 0.05 0
1.45 0 0
1.475 0 0
1.45 0.025 0
1.475 0.025 0
1.475 0 0
1.5 0 0
1.475 0.025 0
1.5 0.025 0
1.45 0.025 0
1.475 0.025 0
1.45 0.05 0
1.475 0.05 0
1.475 0.025 0
1.5 0.025 0
1.475 0.05 0
1.5 0.05 0
1.5 0 0
1.525 0 0
1.5 0.025 0
1.525 0.025 0
1.525 0 0
1.55 0 0
1.525 0.025 0
1.55 0.025 0
1.5 0.025 0
1.525 0.025 0
1.5 0.05 0
1.525 0.05 0
1.525 0.025 0
1.55 0.025 0
1.525 0.05 0
1.55 0.05 0
1.55 0 0
1.575 0 0
1.55 0.025 0
1.575 0.025 0
1.575 0 0
1.6 0 0
1.575 0.025 0
1.6 0.025 0
1.55 0.025 0
1.575 0.025 0
1.55 0.05 0
1.575 0.05 0
1.575 0.025 0
1.6 0.025 0
1.575 0.05 0
1.6 0.05 0
1.6 0 0
1.625 0 0
1.6 0.025 0
1.625 0.025 0
1.625 0 0
1.65 0 0
1.625 0.025 0
1.65 0.025 0
1.6 0.025 0
1.625 0.025 0
1.6 0.05 0
1.625 0.05 0
1.625 0.025 0
1.65 0.025 0
1.625 0.05 0
1.65 0.05 0
1.65 0 0
1.675 0 0
1.65 0.025 0
1.675 0.025 0
1.675 0 0
1.7 0 0
1.675 0.025 0
1.7 0.025 0
1.65 0.025 0
1.675 0.025 0
1.65 0.05 0
1.675 0.05 0
1.675 0.025 0
1.7 0.025 0
1.675 0.05 0
1.7 0.05 0
1.7 0 0
1.725 0 0
1.7 0.025 0
1.725 0.025 0
1.725 0 0
1.75 0 0
1.725 0.025 0
1.75 0.025 0
1.7 0.025 0
1.725 0.025 0
1.7 0.05 0
1.725 0.05 0
1.725 0.025 0
1.75 0.025 0
1.725 0.05 0
1.75 0.05 0
1.75 0 0
1.775 0 0
1.75 0.025 0
1.775 0.025 0
1.775 0 0
1.8 0 0
1.775 0.025 0
1.8 0.025 0
1.75 0.025 0
1.775 0.025 0
1.75 0.05 0
1.775 0.05 0
1.775 0.025 0
1.8 0.025 0
1.775 0.05 0
1.8 0.05 0
1.8 0 0
1.825 0 0
1.8 0.025 0
1.825 0.025 0
1.825 0 0
1.85 0 0
1.825 0.025 0
1.85 0.025 0
1.8 0.025 0
1.825 0.025 0
1.8 0.05 0
1.825 0.05 0
1.825 0.025 0
1.85 0.025 0
1.825 0.05 0
1.85 0.05 0
1.85 0 0
1.875 0 0
1.85 0.025 0
1.875 0.025 0
1.875 0 0
1.9 0 0
1.875 0.025 0
1.9 0.025 0
1.85 0.025 0
1.875 0.025 0
1.85 0.05 0
1.875 0.05 0
1.875 0.025 0
1.9 0.025 0
1.875 0.05 0
1.9 0.05 0
1.9 0 0
1.925 0 0
1.9 0.025 0
1.925 0.025 0
1.925 0 0
1.95 0 0
1.925 0.025 0
1.95 0.025 0
1.9 0.025 0
1.925 0.025 0
1.9 0.05 0
1.925 0.05 0
1.925 0.025 0
1.95 0.025 0
1.925 0.05 0
1.95 0.05 0
1.95 0 0
1.975 0 0
1.95 0.025 0
1.975 0.025 0
1.975 0 0
2 0 0
1.975 0.025 0
2 0.025 0
1.95 0.025 0
1.975 0.025 0
1.95 0.05 0
1.975 0.05 0
1.975 0.025 0
2 0.025 0
1.975 0.05 0
2 0.05 0
0 0.05 0
0.025 0.05 0
0 0.075 0
0.025 0.075 0
0.025 0.05 0
0.05 0.05 0
0.025 0.075 0
0.05 0.075 0
0 0.075 0
0.025 0.075 0
0 0.1 0
0.025 0.1 0
0.025 0.075 0
0.05 0.075 0
0.025 0.1 0
0.05 0.1 0
0.05 0.05 0
0.075 0.05 0
0.05 0.075 0
0.075 0.075 0
0.075 0.05 0
0.1 0.05 0
0.075 0.075 0
0.1 0.075 0
0.05 0.075 0
0.075 0.075 0
0.05 0.1 0
0.075 0.1 0
0.075 0.075 0
0.1 0.075 0
0.075 0.1 0
0.1 0.1 0
0.3 0.05 0
0.325 0.05 0
0.3 0.075 0
0.325 0.075 0
0.325 0.05 0
0.35 0.05 0
0.325 0.075 0
0.35 0.075 0
0.3 0.075 0
0.325 0.075 0
0.3 0.1 0
0.325 0.1 0
0.325 0.075 0
0.35 0.075 0
0.325 0.1 0
0.35 0.1 0
0.35 0.05 0
0.375 0.05 0
0.35 0.075 0
0.375 0.075 0
0.375 0.05 0
0.4 0.05 0
0.375 0.075 0
0.4 0.075 0
0.35 0.075 0
0.375 0.075 0
0.35 0.1 0
0.375 0.1 0
0.375 0.075 0
0.4 0.075 0
0.375 0.1 0
0.4 0.1 0
0.4 0.05 0
0.425 0.05 0
0.4 0.075 0
0.425 0.075 0
0.425 0.05 0
0.45 0.05 0
0.425 0.075 0
0.45 0.075 0
0.4 0.075 0
0.425 0.075 0
0.4 0.1 0
0.425 0.1 0
0.425 0.075 0
0.45 0.075 0
0.425 0.1 0
0.45 0.1 0
0.45 0.05 0
0.475 0.05 0
0.45 0.075 0
0.475 0.075 0
0.475 0.05 0
0.5 0.05 0
0.475 0.075 0
0.5 0.075 0
0.45 0.075 0
0.475 0.075 0
0.45 0.1 0
0.475 0.1 0
0.475 0.075 0
0.5 0.075 0
0.475 0.1 0
0.5 0.1 0
0.5 0.05 0
0.525 0.05 0
0.5 0.075 0
0.525 0.075 0
0.525 0.05 0
0.55 0.05 0
0.525 0.075 0
0.55 0.075 0
0.5 0.075 0
0.525 0.075 0
0.5 0.1 0
0.525 0.1 0
0.525 0.075 0
0.55 0.075 0
0.525 0.1 0
0.55 0.1 0
0.55 0.05 0
0.575 0.05 0
0.55 0.075 0
0.575 0.075 0
0.575 0.05 0
0.6 0.05 0
0.575 0.075 0
0.6 0.075 0
0.55 0.075 0
0.575 0.075 0
0.55 0.1 0
0.575 0.1 0
0.575 0.075 0
0.6 0.075 0
0.575 0.1 0
0.6 0.1 0
0.6 0.05 0
0.625 0.05 0
0.6 0.075 0
0.625 0.075 0
0.625 0.05 0
0.65 0.05 0
0.625 0.075 0
0.65 0.075 0
0.6 0.075 0
0.625 0.075 0
0.6 0.1 0
0.625 0.1 0
0.625 0.075 0
0.65 0.075 0
0.625 0.1 0
0.65 0.1 0
0.65 0.05 0
0.675 0.05 0
0.65 0.075 0
0.675 0.075 0
0.675 0.05 0
0.7 0.05 0
0.675 0.075 0
0.7 0.075 0
0.65 0.075 0
0.675 0.075 0
0.65 0.1 0
0.675 0.1 0
0.675 0.075 0
0.7 0.075 0
0.675 0.1 0
0.7 0.1 0
0.7 0.05 0
0.725 0.05 0
0.7 0.075 0
0.725 0.075 0
0.725 0.05 0
0.75 0.05 0
0.725 0.075 0
0.75 0.075 0
0.7 0.075 0
0.725 0.075 0
0.7 0.1 0
0.725 0.1 0
0.725 0.075 0
0.75 0.075 0
0.725 0.1 0
0.75 0.1 0
0.75 0.05 0
0.775 0.05 0
0.75 0.075 0
0.775 0.075 0
0.775 0.05 0
0.8 0.05 0
0.775 0.075 0
0.8 0.075 0
0.75 0.075 0
0.775 0.075 0
0.75 0.1 0
0.775 0.1 0
0.775 0.075 0
0.8 0.075 0
0.775 0.1 0
0.8 0.1 0
0.8 0.05 0
0.825 0.05 0
0.8 0.075 0
0.825 0.075 0
0.825 0.05 0
0.85 0.05 0
0.825 0.075 0
0.85 0.075 0
0.8 0.075 0
0.825 0.075 0
0.8 0.1 0
0.825 0.1 0
0.825 0.075 0
0.85 0.075 0
0.825 0.1 0
0.85 0.1 0
0.85 0.05 0
0.875 0.05 0
0.85 0.075 0
0.875 0.075 0
0.875 0.05 0
0.9 0.05 0
0.875 0.075 0
0.9 0.075 0
0.85 0.075 0
0.875 0.075 0
0.85 0.1 0
0.875 0.1 0
0.875 0.075 0
0.9 0.075 0
0.875 0.1 0
0.9 0.1 0
0.9 0.05 0
0.925 0.05 0
0.9 0.075 0
0.925 0.075 0
0.925 0.05 0
0.95 0.05 0
0.925 0.075 0
0.95 0.075 0
0.9 0.075 0
0.925 0.075 0
0.9 0.1 0
0.925 0.1 0
0.925 0.075 0
0.95 0.075 0
0.925 0.1 0
0.95 0.1 0
0.95 0.05 0
0.975 0.05 0
0.95 0.075 0
0.975 0.075 0
0.975 0.05 0
1 0.05 0
0.975 0.075 0
1 0.075 0
0.95 0.075 0
0.975 0.075 0
0.95 0.1 0
0.975 0.1 0
0.975 0.075 0
1 0.075 0
0.975 0.1 0
1 0.1 0
1 0.05 0
1.025 0.05 0
1 0.075 0
1.025 0.075 0
1.025 0.05 0
1.05 0.05 0
1.025 0.075 0
1.05 0.075 0
1 0.075 0
1.025 0.075 0
1 0.1 0
1.025 0.1 0
1.025 0.075 0
1.05 0.075 0
1.025 0.1 0
1.05 0.1 0
1.05 0.05 0
1.075 0.05 0
1.05 0.075 0
1.075 0.075 0
1.075 0.05 0
1.1 0.05 0
1.075 0.075 0
1.1 0.075 0
1.05 0.075 0
1.075 0.075 0
1.05 0.1 0
1.075 0.1 0
1.075 0.075 0
1.1 0.075 0
1.075 0.1 0
1.1 0.1 0
1.1 0.05 0
1.125 0.05 0
1.1 0.075 0
1.125 0.075 0
1.125 0.05 0
1.15 0.05 0
1.125 0.075 0
1.15 0.075 0
1.1 0.075 0
1.125 0.075 0
1.1 0.1 0
1.125 0.1 0
1.125 0.075 0
1.15 0.075 0
1.125 0.1 0
1.15 0.1 0
1.15 0.05 0
1.175 0.05 0
1.15 0.075 0
1.175 0.075 0
1.175 0.05 0
1.2 0.05 0
1.175 0.075 0
1.2 0.075 0
1.15 0.075 0
1.175 0.075 0
1.15 0.1 0
1.175 0.1 0
1.175 0.075 0
1.2 0.075 0
1.175 0.1 0
1.2 0.1 0
1.2 0.05 0
1.225 0.05 0
1.2 0.075 0
1.225 0.075 0
1.225 0.05 0
1.25 0.05 0
1.225 0.075 0
1.25 0.075 0
1.2 0.075 0
1.225 0.075 0
1.2 0.1 0
1.225 0.1 0
1.225 0.075 0
[...]
POINT_DATA 11912
SCALARS x_displacement double 1
LOOKUP_TABLE default
0 -1.46867 0 -0.855963 -1.46867 -2.56181 -0.855963 -1.74871 -2.56181 -3.45586 -1.74871 -2.52576 -3.45586 -4.21763 -2.52576 -3.21451 -4.21763 -4.89189 -3.21451 -3.82956 -4.89189 -5.51952 -3.82956 -4.38852 -5.51952 -6.136 -4.38852 -4.92227 -6.136 -6.76225 -4.92227 -5.44942 -6.76225 -7.38709 -5.44942 -5.98948 -7.38709 -7.99068 -5.98948 -6.54115 -7.99068 -8.56966 -6.54115 -7.09557 -8.56966 -9.14113 -7.09557 -7.64154 -9.14113 -9.71425 -7.64154 -8.17723 -9.71425 -10.2867 -8.17723 -8.70138 -10.2867 -10.8514 -8.70138 -9.2186 -10.8514 -11.4026 -9.2186 -9.73182 -11.4026 -11.938 -9.73182 -10.2429 -11.938 -12.4573 -10.2429 -10.7521 -12.4573 -12.9602 -10.7521 -11.2598 -12.9602 -13.4477 -11.2598 -11.7647 -13.4477 -13.9289 -11.7647 -12.2613 -13.9289 -14.4281 -12.2613 -12.7437 -14.4281 -14.9719 -12.7437 -13.2115 -14.9719 -15.544 -13.2115 -13.6651 -15.544 -16.0518 -13.6651 -14.0885 -16.0518 -16.4219 -14.0885 -14.4773 -1.74871 -2.52576 -1.20428 -1.8137 -2.52576 -3.21451 -1.8137 -2.37839 -3.21451 -3.82956 -2.37839 -2.89183 -3.82956 -4.38852 -2.89183 -3.34438 -2.37839 -2.89183 -1.6578 -2.07762 -2.89183 -3.34438 -2.07762 -2.45311 -1.0613 -1.18533 -0.020019 -0.0187879 -1.18533 -1.24755 -0.0187879 -0.0183573 -1.35542 -1.36239 -0.0168687 -0.0174129 -2.07464 -2.3378 -0.0185144 -0.0185621 -2.3378 -2.41282 -0.0185621 -0.0185938 -0.238063 -0.144744 0.339281 0.48213 -0.020019 -0.0187879 1.02262 1.14817 -0.0187879 -0.0183573 1.14817 1.21115 -0.0185144 -0.0185621 2.03749 2.30061 -0.0185621 -0.0185938 2.30061 2.37554 1.64928 2.07011 2.37451 2.8877 2.07011 2.44628 2.8877 3.34011 1.20094 1.81008 1.75082 2.52792 1.81008 2.37451 2.52792 3.2158 2.37451 2.8877 3.2158 3.82926 2.8877 3.34011 3.82926 4.38624 0 0.857268 0 1.47625 0.857268 1.75082 1.47625 2.57224 1.75082 2.52792 2.57224 3.46611 2.52792 3.2158 3.46611 4.22589 3.2158 3.82926 4.22589 4.89677 3.82926 4.38624 4.89677 5.51976 4.38624 4.91739 5.51976 6.13031 4.91739 5.44095 6.13031 6.74983 5.44095 5.97587 6.74983 7.3685 5.97587 6.52187 7.3685 7.96771 6.52187 7.07036 7.96771 8.54379 7.07036 7.61129 8.54379 9.11254 7.61129 8.14277 9.11254 9.68299 8.14277 8.664 9.68299 10.2523 8.664 9.17937 10.2523 10.8131 9.17937 9.69163 10.8131 11.3604 9.69163 10.2021 11.3604 11.8928 10.2021 10.711 11.8928 12.4102 10.711 11.2184 12.4102 12.9125 11.2184 11.7232 12.9125 13.4005 11.7232 12.2201 13.4005 13.8827 12.2201 12.7031 13.8827 14.3832 12.7031 13.1716 14.3832 14.9283 13.1716 13.626 14.9283 15.5019 13.626 14.0498 15.5019 16.0108 14.0498 14.4389 16.0108 16.3813 -16.4219 -16.5836 -15.4496 -15.607 -16.5836 -16.7155 -15.607 -15.7671 -15.4496 -15.607 -14.4773 -14.6546 -15.607 -15.7671 -14.6546 -14.8053 -16.7155 -16.8297 -15.7671 -15.9214 -16.8297 -16.8502 -15.9214 -16.0603 -15.7671 -15.9214 -14.8053 -14.937 -15.9214 -16.0603 -14.937 -15.0748 -16.8502 -16.9503 -16.0603 -16.1742 -16.9503 -17.4739 -16.1742 -16.2254 -16.0603 -16.1742 -15.0748 -15.2261 -16.1742 -16.2254 -15.2261 -15.3103 -17.4739 -17.7935 -16.2254 -16.507 -17.7935 -18.045 -16.507 -16.7594 -16.2254 -16.507 -15.3103 -15.3257 -16.507 -16.7594 -15.3257 -15.4566 -18.045 -18.2694 -16.7594 -16.9821 -18.2694 -18.4683 -16.9821 -17.2008 -16.7594 -16.9821 -15.4566 -15.7585 -16.9821 -17.2008 -15.7585 -15.9843 -18.4683 -18.6527 -17.2008 -17.3955 -18.6527 -18.8186 -17.3955 -17.5696 -17.2008 -17.3955 -15.9843 -16.181 -17.3955 -17.5696 -16.181 -16.3639 -18.8186 -18.9654 -17.5696 -17.7256 -18.9654 -19.0934 -17.7256 -17.8633 -17.5696 -17.7256 -16.3639 -16.5272 -17.7256 -17.8633 -16.5272 -16.6734 -19.0934 -19.203 -17.8633 -17.9835 -19.203 -19.2945 -17.9835 -18.0868 -17.8633 -17.9835 -16.6734 -16.8033 -17.9835 -18.0868 -16.8033 -16.9172 -19.2945 -19.3683 -18.0868 -18.1734 -19.3683 -19.4249 -18.1734 -18.244 -18.0868 -18.1734 -16.9172 -17.0152 -18.1734 -18.244 -17.0152 -17.0977 -19.4249 -19.4652 -18.244 -18.2995 -19.4652 -19.4906 -18.2995 -18.3411 -18.244 -18.2995 -17.0977 -17.1656 -18.2995 -18.3411 -17.1656 -17.22 -19.4906 -19.503 -18.3411 -18.3703 -19.503 -19.5048 -18.3703 -18.389 -18.3411 -18.3703 -17.22 -17.2619 -18.3703 -18.389 -17.2619 -17.2925 -19.5048 -19.4988 -18.389 -18.3991 -19.4988 -19.4884 -18.3991 -18.4031 -18.389 -18.3991 -17.2925 -17.3135 -18.3991 -18.4031 -17.3135 -17.3265 -19.4884 -19.477 -18.4031 -18.4033 -19.477 -19.4679 -18.4033 -18.4019 -18.4031 -18.4033 -17.3265 -17.3335 -18.4033 -18.4019 -17.3335 -17.3365 -19.4679 -19.4632 -18.4019 -18.4007 -19.4632 -19.4622 -18.4007 -18.4007 -18.4019 -18.4007 -17.3365 -17.3378 -18.4007 -18.4007 -17.3378 -17.3394 0 -0.427981 0 -0.353936 -0.427981 -0.855963 -0.353936 -0.72358 0 -0.353936 0 -0.282274 -0.353936 -0.72358 -0.282274 -0.597805 -0.855963 -1.30234 -0.72358 -1.0948 -1.30234 -1.74871 -1.0948 -1.4765 -0.72358 -1.0948 -0.597805 -0.90682 -1.0948 -1.4765 -0.90682 -1.20428 -4.38852 -4.6554 -3.86645 -4.09384 -4.6554 -4.92227 -4.09384 -4.31984 -3.86645 -4.09384 -3.34438 -3.55415 -4.09384 -4.31984 -3.55415 -3.73596 -4.92227 -5.18585 -4.31984 -4.54982 -5.18585 -5.44942 -4.54982 -4.78916 -4.31984 -4.54982 -3.73596 -3.91547 -4.54982 -4.78916 -3.91547 -4.11711 -5.44942 -5.71945 -4.78916 -5.03094 -5.71945 -5.98948 -5.03094 -5.2789 -4.78916 -5.03094 -4.11711 -4.33243 -5.03094 -5.2789 -4.33243 -4.55026 -5.98948 -6.26531 -5.2789 -5.54263 -6.26531 -6.54115 -5.54263 -5.81555 -5.2789 -5.54263 -4.55026 -4.79903 -5.54263 -5.81555 -4.79903 -5.07971 -6.54115 -6.81836 -5.81555 -6.09382 -6.81836 -7.09557 -6.09382 -6.36233 -5.81555 -6.09382 -5.07971 -5.36279 -6.09382 -6.36233 -5.36279 -5.63066 -7.09557 -7.36856 -6.36233 -6.63906 -7.36856 -7.64154 -6.63906 -6.9031 -6.36233 -6.63906 -5.63066 -5.92155 -6.63906 -6.9031 -5.92155 -6.18007 -7.64154 -7.90938 -6.9031 -7.16021 -7.90938 -8.17723 -7.16021 -7.41658 -6.9031 -7.16021 -6.18007 -6.4121 -7.16021 -7.41658 -6.4121 -6.6599 -8.17723 -8.4393 -7.41658 -7.6667 -8.4393 -8.70138 -7.6667 -7.91422 -7.41658 -7.6667 -6.6599 -6.89838 -7.6667 -7.91422 -6.89838 -7.1276 -8.70138 -8.95999 -7.91422 -8.16024 -8.95999 -9.2186 -8.16024 -8.40598 -7.91422 -8.16024 -7.1276 -7.35861 -8.16024 -8.40598 -7.35861 -7.59092 -9.2186 -9.47521 -8.40598 -8.65245 -9.47521 -9.73182 -8.65245 -8.90007 -8.40598 -8.65245 -7.59092 -7.82655 -8.65245 -8.90007 -7.82655 -8.06536 -9.73182 -9.98734 -8.90007 -9.14884 -9.98734 -10.2429 -9.14884 -9.39903 -8.90007 -9.14884 -8.06536 -8.30726 -9.14884 -9.39903 -8.30726 -8.55222 -10.2429 -10.4975 -9.39903 -9.65041 -10.4975 -10.7521 -9.65041 -9.90325 -9.39903 -9.65041 -8.55222 -8.80026 -9.65041 -9.90325 -8.80026 -9.05134 -10.7521 -11.006 -9.90325 -10.1573 -11.006 -11.2598 -10.1573 -10.4128 -9.90325 -10.1573 -9.05134 -9.30546 -10.1573 -10.4128 -9.30546 -9.56261 -11.2598 -11.5122 -10.4128 -10.6692 -11.5122 -11.7647 -10.6692 -10.926 -10.4128 -10.6692 -9.56261 -9.82279 -10.6692 -10.926 -9.82279 -10.086 -11.7647 -12.013 -10.926 -11.1814 -12.013 -12.2613 -11.1814 -11.4318 -10.926 -11.1814 -10.086 -10.3516 -11.1814 -11.4318 -10.3516 -10.6162 -12.2613 -12.5025 -11.4318 -11.6759 -12.5025 -12.7437 -11.6759 -11.9095 -11.4318 -11.6759 -10.6162 -10.8724 -11.6759 -11.9095 -10.8724 -11.11 -12.7437 -12.9776 -11.9095 -12.135 -12.9776 -13.2115 -12.135 -12.3493 -11.9095 -12.135 -11.11 -11.3291 -12.135 -12.3493 -11.3291 -11.5354 -13.2115 -13.4383 -12.3493 -12.5617 -13.4383 -13.6651 -12.5617 -12.7664 -12.3493 -12.5617 -11.5354 -11.7243 -12.5617 -12.7664 -11.7243 -11.8993 -13.6651 -13.8768 -12.7664 -12.9663 -13.8768 -14.0885 -12.9663 -13.1585 -12.7664 -12.9663 -11.8993 -12.0654 -12.9663 -13.1585 -12.0654 -12.2281 -14.0885 -14.2829 -13.1585 -13.3422 -14.2829 -14.4773 -13.3422 -13.5126 -13.1585 -13.3422 -12.2281 -12.3871 -13.3422 -13.5126 -12.3871 -12.5355 -14.4773 -14.6546 -13.5126 -13.6653 -14.6546 -14.8053 -13.6653 -13.8066 -13.5126 -13.6653 -12.5355 -12.6722 -13.6653 -13.8066 -12.6722 -12.8027 -14.8053 -14.937 -13.8066 -13.9423 -14.937 -15.0748 -13.9423 -14.077 -13.8066 -13.9423 -12.8027 -12.9307 -13.9423 -14.077 -12.9307 -13.0602 -15.0748 -15.2261 -14.077 -14.1979 -15.2261 -15.3103 -14.1979 -14.3256 -14.077 -14.1979 -13.0602 -13.1895 -14.1979 -14.3256 -13.1895 -13.319 -15.3103 -15.3257 -14.3256 -14.4678 -15.3257 -15.4566 -14.4678 -14.566 -14.3256 -14.4678 -13.319 -13.4568 -14.4678 -14.566 -13.4568 -13.6078 -15.4566 -15.7585 -14.566 -14.5925 -15.7585 -15.9843 -14.5925 -14.8128 -14.566 -14.5925 -13.6078 -13.7009 -14.5925 -14.8128 -13.7009 -13.7242 -15.9843 -16.181 -14.8128 -15.013 -16.181 -16.3639 -15.013 -15.1975 -14.8128 -15.013 -13.7242 -13.8448 -15.013 -15.1975 -13.8448 -14.0751 -16.3639 -16.5272 -15.1975 -15.3682 -16.5272 -16.6734 -15.3682 -15.5215 -15.1975 -15.3682 -14.0751 -14.2481 -15.3682 -15.5215 -14.2481 -14.4023 -16.6734 -16.8033 -15.5215 -15.6599 -16.8033 -16.9172 -15.6599 -15.784 -15.5215 -15.6599 -14.4023 -14.5542 -15.6599 -15.784 -14.5542 -14.6855 -16.9172 -17.0152 -15.784 -15.8914 -17.0152 -17.0977 -15.8914 -15.9836 -15.784 -15.8914 -14.6855 -14.7994 -15.8914 -15.9836 -14.7994 -14.9001 -17.0977 -17.1656 -15.9836 -16.0618 -17.1656 -17.22 -16.0618 -16.1264 -15.9836 -16.0618 -14.9001 -14.9872 -16.0618 -16.1264 -14.9872 -15.0604 -17.22 -17.2619 -16.1264 -16.178 -17.2619 -17.2925 -16.178 -16.2174 -16.1264 -16.178 -15.0604 -15.1197 -16.178 -16.2174 -15.1197 -15.1656 -17.2925 -17.3135 -16.2174 -16.2456 -17.3135 -17.3265 -16.2456 -16.2642 -16.2174 -16.2456 -15.1656 -15.1989 -16.2456 -16.2642 -15.1989 -15.221 -17.3265 -17.3335 -16.2642 -16.275 -17.3335 -17.3365 -16.275 -16.2802 -16.2642 -16.275 -15.221 -15.2336 -16.275 -16.2802 -15.2336 -15.2393 -17.3365 -17.3378 -16.2802 -16.2824 -17.3378 -17.3394 -16.2824 -16.2848 -16.2802 -16.2824 -15.2393 -15.2412 -16.2824 -16.2848 -15.2412 -15.2435 0 -0.282274 0 -0.227881 -0.282274 -0.597805 -0.227881 -0.477029 0 -0.227881 0 -0.138428 -0.227881 -0.477029 -0.138428 -0.295007 -0.597805 -0.90682 -0.477029 -0.714306 -0.90682 -1.20428 -0.714306 -0.979889 -0.477029 -0.714306 -0.295007 -0.51697 -0.714306 -0.979889 -0.51697 -0.776714 -1.20428 -1.50899 -0.979889 -1.24873 -1.50899 -1.8137 -1.24873 -1.50698 -0.979889 -1.24873 -0.776714 -0.995672 -1.24873 -1.50698 -0.995672 -1.21782 -1.8137 -2.09605 -1.50698 -1.76373 -2.09605 -2.37839 -1.76373 -2.0181 -1.50698 -1.76373 -1.21782 -1.44375 -1.76373 -2.0181 -1.44375 -1.6578 -3.34438 -3.55415 -2.89875 -3.06502 -3.55415 -3.73596 -3.06502 -3.21365 -2.89875 -3.06502 -2.45311 -2.62522 -3.06502 -3.21365 -2.62522 -2.77421 -3.73596 -3.91547 -3.21365 -3.33715 -3.91547 -4.11711 -3.33715 -3.46216 -3.21365 -3.33715 -2.77421 -2.90183 -3.33715 -3.46216 -2.90183 -3.0288 -4.11711 -4.33243 -3.46216 -3.62914 -4.33243 -4.55026 -3.62914 -3.83928 -3.46216 -3.62914 -3.0288 -3.16473 -3.62914 -3.83928 -3.16473 -3.30492 -4.55026 -4.79903 -3.83928 -4.06258 -4.79903 -5.07971 -4.06258 -4.30913 -3.83928 -4.06258 -3.30492 -3.45523 -4.06258 -4.30913 -3.45523 -3.57083 -5.07971 -5.36279 -4.30913 -4.58773 -5.36279 -5.63066 -4.58773 -4.89687 -4.30913 -4.58773 -3.57083 -3.75521 -4.58773 -4.89687 -3.75521 -4.08506 -5.63066 -5.92155 -4.89687 -5.19779 -5.92155 -6.18007 -5.19779 -5.45177 -4.89687 -5.19779 -4.08506 -4.50768 -5.19779 -5.45177 -4.50768 -4.71254 -6.18007 -6.4121 -5.45177 -5.66266 -6.4121 -6.6599 -5.66266 -5.89687 -5.45177 -5.66266 -4.71254 -4.89668 -5.66266 -5.89687 -4.89668 -5.14476 -6.6599 -6.89838 -5.89687 -6.12603 -6.89838 -7.1276 -6.12603 -6.33683 -5.89687 -6.12603 -5.14476 -5.342 -6.12603 -6.33683 -5.342 -5.54573 -7.1276 -7.35861 -6.33683 -6.55374 -7.35861 -7.59092 -6.55374 -6.77285 -6.33683 -6.55374 -5.54573 -5.74716 -6.55374 -6.77285 -5.74716 -5.9542 -7.59092 -7.82655 -6.77285 -6.99781 -7.82655 -8.06536 -6.99781 -7.22792 -6.77285 -6.99781 -5.9542 -6.1687 -6.99781 -7.22792 -6.1687 -6.39008 -8.06536 -8.30726 -7.22792 -7.46291 -8.30726 -8.55222 -7.46291 -7.70273 -7.22792 -7.46291 -6.39008 -6.61819 -7.46291 -7.70273 -6.61819 -6.85286 -8.55222 -8.80026 -7.70273 -7.94734 -8.80026 -9.05134 -7.94734 -8.19673 -7.70273 -7.94734 -6.85286 -7.09407 -7.94734 -8.19673 -7.09407 -7.34173 -9.05134 -9.30546 -8.19673 -8.45082 -9.30546 -9.56261 -8.45082 -8.70958 -8.19673 -8.45082 -7.34173 -7.59577 -8.45082 -8.70958 -7.59577 -7.85611 -9.56261 -9.82279 -8.70958 -8.97328 -9.82279 -10.086 -8.97328 -9.24341 -8.70958 -8.97328 -7.85611 -8.12333 -8.97328 -9.24341 -8.12333 -8.40121 -10.086 -10.3516 -9.24341 -9.5255 -10.3516 -10.6162 -9.5255 -9.82651 -9.24341 -9.5255 -8.40121 -8.70645 -9.5255 -9.82651 -8.70645 -9.08436 -10.6162 -10.8724 -9.82651 -10.1167 -10.8724 -11.11 -10.1167 -10.3628 -9.82651 -10.1167 -9.08436 -9.41846 -10.1167 -10.3628 -9.41846 -9.72769 -11.11 -11.3291 -10.3628 -10.5948 -11.3291 -11.5354 -10.5948 -10.7947 -10.3628 -10.5948 -9.72769 -9.98834 -10.5948 -10.7947 -9.98834 -10.1156 -11.5354 -11.7243 -10.7947 -10.9408 -11.7243 -11.8993 -10.9408 -11.0605 -10.7947 -10.9408 -10.1156 -10.1903 -10.9408 -11.0605 -10.1903 -10.2455 -11.8993 -12.0654 -11.0605 -11.1717 -12.0654 -12.2281 -11.1717 -11.2828 -11.0605 -11.1717 -10.2455 -10.2917 -11.1717 -11.2828 -10.2917 -10.3314 -12.2281 -12.3871 -11.2828 -11.3978 -12.3871 -12.5355 -11.3978 -11.5232 -11.2828 -11.3978 -10.3314 -10.3747 -11.3978 -11.5232 -10.3747 -10.4552 -12.5355 -12.6722 -11.5232 -11.6505 -12.6722 -12.8027 -11.6505 -11.7761 -11.5232 -11.6505 -10.4552 -10.5766 -11.6505 -11.7761 -10.5766 -10.7197 -12.8027 -12.9307 -11.7761 -11.9054 -12.9307 -13.0602 -11.9054 -12.0385 -11.7761 -11.9054 -10.7197 -10.8667 -11.9054 -12.0385 -10.8667 -11.0095 -13.0602 -13.1895 -12.0385 -12.1728 -13.1895 -13.319 -12.1728 -12.3105 -12.0385 -12.1728 -11.0095 -11.1519 -12.1728 -12.3105 -11.1519 -11.2946 -13.319 -13.4568 -12.3105 -12.4522 -13.4568 -13.6078 -12.4522 -12.5833 -12.3105 -12.4522 -11.2946 -11.4387 -12.4522 -12.5833 -11.4387 -11.5831 -13.6078 -13.7009 -12.5833 -12.7256 -13.7009 -13.7242 -12.7256 -12.8952 -12.5833 -12.7256 -11.5831 -11.7304 -12.7256 -12.8952 -11.7304 -11.875 -13.7242 -13.8448 -12.8952 -12.9914 -13.8448 -14.0751 -12.9914 -12.9713 -12.8952 -12.9914 -11.875 -12.0144 -12.9914 -12.9713 -12.0144 -12.1254 -14.0751 -14.2481 -12.9713 -13.1468 -14.2481 -14.4023 -13.1468 -13.3305 -12.9713 -13.1468 -12.1254 -12.2296 -13.1468 -13.3305 -12.2296 -12.2766 -14.4023 -14.5542 -13.3305 -13.4865 -14.5542 -14.6855 -13.4865 -13.6158 -13.3305 -13.4865 -12.2766 -12.4351 -13.4865 -13.6158 -12.4351 -12.5702 -14.6855 -14.7994 -13.6158 -13.7366 -14.7994 -14.9001 -13.7366 -13.8458 -13.6158 -13.7366 -12.5702 -12.7005 -13.7366 -13.8458 -12.7005 -12.8215 -14.9001 -14.9872 -13.8458 -13.9414 -14.9872 -15.0604 -13.9414 -14.022 -13.8458 -13.9414 -12.8215 -12.9241 -13.9414 -14.022 -12.9241 -13.011 -15.0604 -15.1197 -14.022 -14.0878 -15.1197 -15.1656 -14.0878 -14.1391 -14.022 -14.0878 -13.011 -13.0835 -14.0878 -14.1391 -13.0835 -13.1395 -15.1656 -15.1989 -14.1391 -14.1763 -15.1989 -15.221 -14.1763 -14.2007 -14.1391 -14.1763 -13.1395 -13.18 -14.1763 -14.2007 -13.18 -13.2064 -15.221 -15.2336 -14.2007 -14.214 -15.2336 -15.2393 -14.214 -14.2191 -14.2007 -14.214 -13.2064 -13.2201 -14.214 -14.2191 -13.2201 -13.2237 -15.2393 -15.2412 -14.2191 -14.2196 -15.2412 -15.2435 -14.2196 -14.2209 -14.2191 -14.2196 -13.2237 -13.222 -14.2196 -14.2209 -13.222 -13.2209 0 -0.138428 0 -0.0919876 -0.138428 -0.295007 -0.0919876 -0.0820845 0 -0.0919876 0 -0.138451 -0.0919876 -0.0820845 -0.138451 -0.311374 -0.295007 -0.51697 -0.0820845 -0.335134 -0.51697 -0.776714 -0.335134 -0.544245 -0.0820845 -0.335134 -0.311374 -0.538576 -0.335134 -0.544245 -0.538576 -0.346468 -0.776714 -0.995672 -0.544245 -0.744119 -0.995672 -1.21782 -0.744119 -0.947019 -0.544245 -0.744119 -0.346468 -0.481643 -0.744119 -0.947019 -0.481643 -0.647405 -1.21782 -1.44375 -0.947019 -1.13122 -1.44375 -1.6578 -1.13122 -1.32211 -0.947019 -1.13122 -0.647405 -0.819964 -1.13122 -1.32211 -0.819964 -1.00226 -1.6578 -1.86771 -1.32211 -1.51827 -1.86771 -2.07762 -1.51827 -1.70376 -1.32211 -1.51827 -1.00226 -1.16859 -1.51827 -1.70376 -1.16859 -1.34177 -2.07762 -2.26536 -1.70376 -1.8857 -2.26536 -2.45311 -1.8857 -2.05986 -1.70376 -1.8857 -1.34177 -1.51914 -1.8857 -2.05986 -1.51914 -1.68798 -2.45311 -2.62522 -2.05986 -2.2266 -2.62522 -2.77421 -2.2266 -2.38648 -2.05986 -2.2266 -1.68798 -1.85403 -2.2266 -2.38648 -1.85403 -2.0197 -2.77421 -2.90183 -2.38648 -2.54109 -2.90183 -3.0288 -2.54109 -2.69678 -2.38648 -2.54109 -2.0197 -2.18405 -2.54109 -2.69678 -2.18405 -2.34703 -3.0288 -3.16473 -2.69678 -2.84925 -3.16473 -3.30492 -2.84925 -3.0008 -2.69678 -2.84925 -2.34703 -2.51099 -2.84925 -3.0008 -2.51099 -2.68224 -3.30492 -3.45523 -3.0008 -3.16591 -3.45523 -3.57083 -3.16591 -3.33515 -3.0008 -3.16591 -2.68224 -2.85215 -3.16591 -3.33515 -2.85215 -3.02072 -3.57083 -3.75521 -3.33515 -3.52322 -3.75521 -4.08506 -3.52322 -3.69285 -3.33515 -3.52322 -3.02072 -3.20924 -3.52322 -3.69285 -3.20924 -3.39771 -4.08506 -4.50768 -3.69285 -3.57337 -4.50768 -4.71254 -3.57337 -3.78258 -3.69285 -3.57337 -3.39771 -3.59046 -3.57337 -3.78258 -3.59046 -3.78601 -4.71254 -4.89668 -3.78258 -4.1899 -4.89668 -5.14476 -4.1899 -4.52218 -3.78258 -4.1899 -3.78601 -3.70051 -4.1899 -4.52218 -3.70051 -3.67868 -5.14476 -5.342 -4.52218 -4.75037 -5.342 -5.54573 -4.75037 -4.97391 -4.52218 -4.75037 -3.67868 -4.09553 -4.75037 -4.97391 -4.09553 -4.44809 -5.54573 -5.74716 -4.97391 -5.23115 -5.74716 -5.9542 -5.23115 -5.47125 -4.97391 -5.23115 -4.44809 -4.7022 -5.23115 -5.47125 -4.7022 -4.9618 -5.9542 -6.1687 -5.47125 -5.71083 -6.1687 -6.39008 -5.71083 -5.95027 -5.47125 -5.71083 -4.9618 -5.20911 -5.71083 -5.95027 -5.20911 -5.47078 -6.39008 -6.61819 -5.95027 -6.19708 -6.61819 -6.85286 -6.19708 -6.45392 -5.95027 -6.19708 -5.47078 -5.72465 -6.19708 -6.45392 -5.72465 -6.0035 -6.85286 -7.09407 -6.45392 -6.72355 -7.09407 -7.34173 -6.72355 -7.0021 -6.45392 -6.72355 -6.0035 -6.2994 -6.72355 -7.0021 -6.2994 -6.60037 -7.34173 -7.59577 -7.0021 -7.28844 -7.59577 -7.85611 -7.28844 -7.58837 -7.0021 -7.28844 -6.60037 -6.90413 -7.28844 -7.58837 -6.90413 -7.21184 -7.85611 -8.12333 -7.58837 -7.92363 -8.12333 -8.40121 -7.92363 -8.34864 -7.58837 -7.92363 -7.21184 -7.52063 -7.92363 -8.34864 -7.52063 -7.8012 -8.40121 -8.70645 -8.34864 -8.99326 -8.70645 -9.08436 -8.99326 -9.16608 -8.34864 -8.99326 -7.8012 -8.06015 -8.99326 -9.16608 -8.06015 -8.36832 -9.08436 -9.41846 -9.16608 -9.15346 -9.41846 -9.72769 -9.15346 -9.30194 -9.16608 -9.15346 -8.36832 -8.63959 -9.15346 -9.30194 -8.63959 -8.63425 -9.72769 -9.98834 -9.30194 -9.376 -9.98834 -10.1156 -9.376 -9.41909 -9.30194 -9.376 -8.63425 -8.65985 -9.376 -9.41909 -8.65985 -8.67192 -10.1156 -10.1903 -9.41909 -9.43965 -10.1903 -10.2455 -9.43965 -9.4444 -9.41909 -9.43965 -8.67192 -8.66759 -9.43965 -9.4444 -8.66759 -8.63987 -10.2455 -10.2917 -9.4444 -9.43354 -10.2917 -10.3314 -9.43354 -9.40894 -9.4444 -9.43354 -8.63987 -8.59243 -9.43354 -9.40894 -8.59243 -8.52523 -10.3314 -10.3747 -9.40894 -9.36404 -10.3747 -10.4552 -9.36404 -9.33418 -9.40894 -9.36404 -8.52523 -8.44325 -9.36404 -9.33418 -8.44325 -8.25787 -10.4552 -10.5766 -9.33418 -9.47752 -10.5766 -10.7197 -9.47752 -9.66076 -9.33418 -9.47752 -8.25787 -8.38612 -9.47752 -9.66076 -8.38612 -8.58857 -10.7197 -10.8667 -9.66076 -9.81183 -10.8667 -11.0095 -9.81183 -9.96866 -9.66076 -9.81183 -8.58857 -8.76371 -9.81183 -9.96866 -8.76371 -8.94247 -11.0095 -11.1519 -9.96866 -10.128 -11.1519 -11.2946 -10.128 -10.279 -9.96866 -10.128 -8.94247 -9.10378 -10.128 -10.279 -9.10378 -9.26239 -11.2946 -11.4387 -10.279 -10.4279 -11.4387 -11.5831 -10.4279 -10.5765 -10.279 -10.4279 -9.26239 -9.42107 -10.4279 -10.5765 -9.42107 -9.57371 -11.5831 -11.7304 -10.5765 -10.7276 -11.7304 -11.875 -10.7276 -10.8729 -10.5765 -10.7276 -9.57371 -9.72359 -10.7276 -10.8729 -9.72359 -9.87148 -11.875 -12.0144 -10.8729 -11.005 -12.0144 -12.1254 -11.005 -11.1518 -10.8729 -11.005 -9.87148 -10.0203 -11.005 -11.1518 -10.0203 -10.1719 -12.1254 -12.2296 -11.1518 -11.3188 -12.2296 -12.2766 -11.3188 -11.407 -11.1518 -11.3188 -10.1719 -10.3108 -11.3188 -11.407 -10.3108 -10.4561 -12.2766 -12.4351 -11.407 -11.3894 -12.4351 -12.5702 -11.3894 -11.54 -11.407 -11.3894 -10.4561 -10.6207 -11.3894 -11.54 -10.6207 -10.7299 -12.5702 -12.7005 -11.54 -11.704 -12.7005 -12.8215 -11.704 -11.8285 -11.54 -11.704 -10.7299 