# vtk DataFile Version 3.0
#This file was generated by the deal.II library on 2015/9/1 at 17:13: 3
ASCII
DATASET UNSTRUCTURED_GRID

POINTS 11912 double
0 0 0
0.05 0 0
0 0.05 0
0.05 0.05 0
0.05 0 0
0.1 0 0
0.05 0.05 0
0.1 0.05 0
0.1 0 0
0.15 0 0
0.1 0.05 0
0.15 0.05 0
0.15 0 0
0.2 0 0
0.15 0.05 0
0.2 0.05 0
0.2 0 0
0.25 0 0
0.2 0.05 0
0.25 0.05 0
0.25 0 0
0.3 0 0
0.25 0.05 0
0.3 0.05 0
0.3 0 0
0.35 0 0
0.3 0.05 0
0.35 0.05 0
0.35 0 0
0.4 0 0
0.35 0.05 0
0.4 0.05 0
0.4 0 0
0.45 0 0
0.4 0.05 0
0.45 0.05 0
0.45 0 0
0.5 0 0
0.45 0.05 0
0.5 0.05 0
0.5 0 0
0.55 0 0
0.5 0.05 0
0.55 0.05 0
0.55 0 0
0.6 0 0
0.55 0.05 0
0.6 0.05 0
0.6 0 0
0.65 0 0
0.6 0.05 0
0.65 0.05 0
0.65 0 0
0.7 0 0
0.65 0.05 0
0.7 0.05 0
0.7 0 0
0.75 0 0
0.7 0.05 0
0.75 0.05 0
0.75 0 0
0.8 0 0
0.75 0.05 0
0.8 0.05 0
0.8 0 0
0.85 0 0
0.8 0.05 0
0.85 0.05 0
0.85 0 0
0.9 0 0
0.85 0.05 0
0.9 0.05 0
0.9 0 0
0.95 0 0
0.9 0.05 0
0.95 0.05 0
0.95 0 0
1 0 0
0.95 0.05 0
1 0.05 0
1 0 0
1.05 0 0
1 0.05 0
1.05 0.05 0
1.05 0 0
1.1 0 0
1.05 0.05 0
1.1 0.05 0
1.1 0 0
1.15 0 0
1.1 0.05 0
1.15 0.05 0
1.15 0 0
1.2 0 0
1.15 0.05 0
1.2 0.05 0
1.2 0 0
1.25 0 0
1.2 0.05 0
1.25 0.05 0
1.25 0 0
1.3 0 0
1.25 0.05 0
1.3 0.05 0
0.1 0.05 0
0.15 0.05 0
0.1 0.1 0
0.15 0.1 0
0.15 0.05 0
0.2 0.05 0
0.15 0.1 0
0.2 0.1 0
0.2 0.05 0
0.25 0.05 0
0.2 0.1 0
0.25 0.1 0
0.25 0.05 0
0.3 0.05 0
0.25 0.1 0
0.3 0.1 0
0.2 0.1 0
0.25 0.1 0
0.2 0.15 0
0.25 0.15 0
0.25 0.1 0
0.3 0.1 0
0.25 0.15 0
0.3 0.15 0
0.85 0.45 0
0.9 0.45 0
0.85 0.5 0
0.9 0.5 0
0.9 0.45 0
0.95 0.45 0
0.9 0.5 0
0.95 0.5 0
1.45 0.45 0
1.5 0.45 0
1.45 0.5 0
1.5 0.5 0
1.9 0.45 0
1.95 0.45 0
1.9 0.5 0
1.95 0.5 0
1.95 0.45 0
2 0.45 0
1.95 0.5 0
2 0.5 0
0.65 0.5 0
0.7 0.5 0
0.65 0.55 0
0.7 0.55 0
0.85 0.5 0
0.9 0.5 0
0.85 0.55 0
0.9 0.55 0
0.9 0.5 0
0.95 0.5 0
0.9 0.55 0
0.95 0.55 0
1.9 0.5 0
1.95 0.5 0
1.9 0.55 0
1.95 0.55 0
1.95 0.5 0
2 0.5 0
1.95 0.55 0
2 0.55 0
0.2 0.85 0
0.25 0.85 0
0.2 0.9 0
0.25 0.9 0
0.25 0.85 0
0.3 0.85 0
0.25 0.9 0
0.3 0.9 0
0.1 0.9 0
0.15 0.9 0
0.1 0.95 0
0.15 0.95 0
0.15 0.9 0
0.2 0.9 0
0.15 0.95 0
0.2 0.95 0
0.2 0.9 0
0.25 0.9 0
0.2 0.95 0
0.25 0.95 0
0.25 0.9 0
0.3 0.9 0
0.25 0.95 0
0.3 0.95 0
0 0.95 0
0.05 0.95 0
0 1 0
0.05 1 0
0.05 0.95 0
0.1 0.95 0
0.05 1 0
0.1 1 0
0.1 0.95 0
0.15 0.95 0
0.1 1 0
0.15 1 0
0.15 0.95 0
0.2 0.95 0
0.15 1 0
0.2 1 0
0.2 0.95 0
0.25 0.95 0
0.2 1 0
0.25 1 0
0.25 0.95 0
0.3 0.95 0
0.25 1 0
0.3 1 0
0.3 0.95 0
0.35 0.95 0
0.3 1 0
0.35 1 0
0.35 0.95 0
0.4 0.95 0
0.35 1 0
0.4 1 0
0.4 0.95 0
0.45 0.95 0
0.4 1 0
0.45 1 0
0.45 0.95 0
0.5 0.95 0
0.45 1 0
0.5 1 0
0.5 0.95 0
0.55 0.95 0
0.5 1 0
0.55 1 0
0.55 0.95 0
0.6 0.95 0
0.55 1 0
0.6 1 0
0.6 0.95 0
0.65 0.95 0
0.6 1 0
0.65 1 0
0.65 0.95 0
0.7 0.95 0
0.65 1 0
0.7 1 0
0.7 0.95 0
0.75 0.95 0
0.7 1 0
0.75 1 0
0.75 0.95 0
0.8 0.95 0
0.75 1 0
0.8 1 0
0.8 0.95 0
0.85 0.95 0
0.8 1 0
0.85 1 0
0.85 0.95 0
0.9 0.95 0
0.85 1 0
0.9 1 0
0.9 0.95 0
0.95 0.95 0
0.9 1 0
0.95 1 0
0.95 0.95 0
1 0.95 0
0.95 1 0
1 1 0
1 0.95 0
1.05 0.95 0
1 1 0
1.05 1 0
1.05 0.95 0
1.1 0.95 0
1.05 1 0
1.1 1 0
1.1 0.95 0
1.15 0.95 0
1.1 1 0
1.15 1 0
1.15 0.95 0
1.2 0.95 0
1.15 1 0
1.2 1 0
1.2 0.95 0
1.25 0.95 0
1.2 1 0
1.25 1 0
1.25 0.95 0
1.3 0.95 0
1.25 1 0
1.3 1 0
1.3 0 0
1.325 0 0
1.3 0.025 0
1.325 0.025 0
1.325 0 0
1.35 0 0
1.325 0.025 0
1.35 0.025 0
1.3 0.025 0
1.325 0.025 0
1.3 0.05 0
1.325 0.05 0
1.325 0.025 0
1.35 0.025 0
1.325 0.05 0
1.35 0.05 0
1.35 0 0
1.375 0 0
1.35 0.025 0
1.375 0.025 0
1.375 0 0
1.4 0 0
1.375 0.025 0
1.4 0.025 0
1.35 0.025 0
1.375 0.025 0
1.35 0.05 0
1.375 0.05 0
1.375 0.025 0
1.4 0.025 0
1.375 0.05 0
1.4 0.05 0
1.4 0 0
1.425 0 0
1.4 0.025 0
1.425 0.025 0
1.425 0 0
1.45 0 0
1.425 0.025 0
1.45 0.025 0
1.4 0.025 0
1.425 0.025 0
1.4 0.05 0
1.425 0.05 0
1.425 0.025 0
1.45 0.025 0
1.425 0.05 0
1.45 0.05 0
1.45 0 0
1.475 0 0
1.45 0.025 0
1.475 0.025 0
1.475 0 0
1.5 0 0
1.475 0.025 0
1.5 0.025 0
1.45 0.025 0
1.475 0.025 0
1.45 0.05 0
1.475 0.05 0
1.475 0.025 0
1.5 0.025 0
1.475 0.05 0
1.5 0.05 0
1.5 0 0
1.525 0 0
1.5 0.025 0
1.525 0.025 0
1.525 0 0
1.55 0 0
1.525 0.025 0
1.55 0.025 0
1.5 0.025 0
1.525 0.025 0
1.5 0.05 0
1.525 0.05 0
1.525 0.025 0
1.55 0.025 0
1.525 0.05 0
1.55 0.05 0
1.55 0 0
1.575 0 0
1.55 0.025 0
1.575 0.025 0
1.575 0 0
1.6 0 0
1.575 0.025 0
1.6 0.025 0
1.55 0.025 0
1.575 0.025 0
1.55 0.05 0
1.575 0.05 0
1.575 0.025 0
1.6 0.025 0
1.575 0.05 0
1.6 0.05 0
1.6 0 0
1.625 0 0
1.6 0.025 0
1.625 0.025 0
1.625 0 0
1.65 0 0
1.625 0.025 0
1.65 0.025 0
1.6 0.025 0
1.625 0.025 0
1.6 0.05 0
1.625 0.05 0
1.625 0.025 0
1.65 0.025 0
1.625 0.05 0
1.65 0.05 0
1.65 0 0
1.675 0 0
1.65 0.025 0
1.675 0.025 0
1.675 0 0
1.7 0 0
1.675 0.025 0
1.7 0.025 0
1.65 0.025 0
1.675 0.025 0
1.65 0.05 0
1.675 0.05 0
1.675 0.025 0
1.7 0.025 0
1.675 0.05 0
1.7 0.05 0
1.7 0 0
1.725 0 0
1.7 0.025 0
1.725 0.025 0
1.725 0 0
1.75 0 0
1.725 0.025 0
1.75 0.025 0
1.7 0.025 0
1.725 0.025 0
1.7 0.05 0
1.725 0.05 0
1.725 0.025 0
1.75 0.025 0
1.725 0.05 0
1.75 0.05 0
1.75 0 0
1.775 0 0
1.75 0.025 0
1.775 0.025 0
1.775 0 0
1.8 0 0
1.775 0.025 0
1.8 0.025 0
1.75 0.025 0
1.775 0.025 0
1.75 0.05 0
1.775 0.05 0
1.775 0.025 0
1.8 0.025 0
1.775 0.05 0
1.8 0.05 0
1.8 0 0
1.825 0 0
1.8 0.025 0
1.825 0.025 0
1.825 0 0
1.85 0 0
1.825 0.025 0
1.85 0.025 0
1.8 0.025 0
1.825 0.025 0
1.8 0.05 0
1.825 0.05 0
1.825 0.025 0
1.85 0.025 0
1.825 0.05 0
1.85 0.05 0
1.85 0 0
1.875 0 0
1.85 0.025 0
1.875 0.025 0
1.875 0 0
1.9 0 0
1.875 0.025 0
1.9 0.025 0
1.85 0.025 0
1.875 0.025 0
1.85 0.05 0
1.875 0.05 0
1.875 0.025 0
1.9 0.025 0
1.875 0.05 0
1.9 0.05 0
1.9 0 0
1.925 0 0
1.9 0.025 0
1.925 0.025 0
1.925 0 0
1.95 0 0
1.925 0.025 0
1.95 0.025 0
1.9 0.025 0
1.925 0.025 0
1.9 0.05 0
1.925 0.05 0
1.925 0.025 0
1.95 0.025 0
1.925 0.05 0
1.95 0.05 0
1.95 0 0
1.975 0 0
1.95 0.025 0
1.975 0.025 0
1.975 0 0
2 0 0
1.975 0.025 0
2 0.025 0
1.95 0.025 0
1.975 0.025 0
1.95 0.05 0
1.975 0.05 0
1.975 0.025 0
2 0.025 0
1.975 0.05 0
2 0.05 0
0 0.05 0
0.025 0.05 0
0 0.075 0
0.025 0.075 0
0.025 0.05 0
0.05 0.05 0
0.025 0.075 0
0.05 0.075 0
0 0.075 0
0.025 0.075 0
0 0.1 0
0.025 0.1 0
0.025 0.075 0
0.05 0.075 0
0.025 0.1 0
0.05 0.1 0
0.05 0.05 0
0.075 0.05 0
0.05 0.075 0
0.075 0.075 0
0.075 0.05 0
0.1 0.05 0
0.075 0.075 0
0.1 0.075 0
0.05 0.075 0
0.075 0.075 0
0.05 0.1 0
0.075 0.1 0
0.075 0.075 0
0.1 0.075 0
0.075 0.1 0
0.1 0.1 0
0.3 0.05 0
0.325 0.05 0
0.3 0.075 0
0.325 0.075 0
0.325 0.05 0
0.35 0.05 0
0.325 0.075 0
0.35 0.075 0
0.3 0.075 0
0.325 0.075 0
0.3 0.1 0
0.325 0.1 0
0.325 0.075 0
0.35 0.075 0
0.325 0.1 0
0.35 0.1 0
0.35 0.05 0
0.375 0.05 0
0.35 0.075 0
0.375 0.075 0
0.375 0.05 0
0.4 0.05 0
0.375 0.075 0
0.4 0.075 0
0.35 0.075 0
0.375 0.075 0
0.35 0.1 0
0.375 0.1 0
0.375 0.075 0
0.4 0.075 0
0.375 0.1 0
0.4 0.1 0
0.4 0.05 0
0.425 0.05 0
0.4 0.075 0
0.425 0.075 0
0.425 0.05 0
0.45 0.05 0
0.425 0.075 0
0.45 0.075 0
0.4 0.075 0
0.425 0.075 0
0.4 0.1 0
0.425 0.1 0
0.425 0.075 0
0.45 0.075 0
0.425 0.1 0
0.45 0.1 0
0.45 0.05 0
0.475 0.05 0
0.45 0.075 0
0.475 0.075 0
0.475 0.05 0
0.5 0.05 0
0.475 0.075 0
0.5 0.075 0
0.45 0.075 0
0.475 0.075 0
0.45 0.1 0
0.475 0.1 0
0.475 0.075 0
0.5 0.075 0
0.475 0.1 0
0.5 0.1 0
0.5 0.05 0
0.525 0.05 0
0.5 0.075 0
0.525 0.075 0
0.525 0.05 0
0.55 0.05 0
0.525 0.075 0
0.55 0.075 0
0.5 0.075 0
0.525 0.075 0
0.5 0.1 0
0.525 0.1 0
0.525 0.075 0
0.55 0.075 0
0.525 0.1 0
0.55 0.1 0
0.55 0.05 0
0.575 0.05 0
0.55 0.075 0
0.575 0.075 0
0.575 0.05 0
0.6 0.05 0
0.575 0.075 0
0.6 0.075 0
0.55 0.075 0
0.575 0.075 0
0.55 0.1 0
0.575 0.1 0
0.575 0.075 0
0.6 0.075 0
0.575 0.1 0
0.6 0.1 0
0.6 0.05 0
0.625 0.05 0
0.6 0.075 0
0.625 0.075 0
0.625 0.05 0
0.65 0.05 0
0.625 0.075 0
0.65 0.075 0
0.6 0.075 0
0.625 0.075 0
0.6 0.1 0
0.625 0.1 0
0.625 0.075 0
0.65 0.075 0
0.625 0.1 0
0.65 0.1 0
0.65 0.05 0
0.675 0.05 0
0.65 0.075 0
0.675 0.075 0
0.675 0.05 0
0.7 0.05 0
0.675 0.075 0
0.7 0.075 0
0.65 0.075 0
0.675 0.075 0
0.65 0.1 0
0.675 0.1 0
0.675 0.075 0
0.7 0.075 0
0.675 0.1 0
0.7 0.1 0
0.7 0.05 0
0.725 0.05 0
0.7 0.075 0
0.725 0.075 0
0.725 0.05 0
0.75 0.05 0
0.725 0.075 0
0.75 0.075 0
0.7 0.075 0
0.725 0.075 0
0.7 0.1 0
0.725 0.1 0
0.725 0.075 0
0.75 0.075 0
0.725 0.1 0
0.75 0.1 0
0.75 0.05 0
0.775 0.05 0
0.75 0.075 0
0.775 0.075 0
0.775 0.05 0
0.8 0.05 0
0.775 0.075 0
0.8 0.075 0
0.75 0.075 0
0.775 0.075 0
0.75 0.1 0
0.775 0.1 0
0.775 0.075 0
0.8 0.075 0
0.775 0.1 0
0.8 0.1 0
0.8 0.05 0
0.825 0.05 0
0.8 0.075 0
0.825 0.075 0
0.825 0.05 0
0.85 0.05 0
0.825 0.075 0
0.85 0.075 0
0.8 0.075 0
0.825 0.075 0
0.8 0.1 0
0.825 0.1 0
0.825 0.075 0
0.85 0.075 0
0.825 0.1 0
0.85 0.1 0
0.85 0.05 0
0.875 0.05 0
0.85 0.075 0
0.875 0.075 0
0.875 0.05 0
0.9 0.05 0
0.875 0.075 0
0.9 0.075 0
0.85 0.075 0
0.875 0.075 0
0.85 0.1 0
0.875 0.1 0
0.875 0.075 0
0.9 0.075 0
0.875 0.1 0
0.9 0.1 0
0.9 0.05 0
0.925 0.05 0
0.9 0.075 0
0.925 0.075 0
0.925 0.05 0
0.95 0.05 0
0.925 0.075 0
0.95 0.075 0
0.9 0.075 0
0.925 0.075 0
0.9 0.1 0
0.925 0.1 0
0.925 0.075 0
0.95 0.075 0
0.925 0.1 0
0.95 0.1 0
0.95 0.05 0
0.975 0.05 0
0.95 0.075 0
0.975 0.075 0
0.975 0.05 0
1 0.05 0
0.975 0.075 0
1 0.075 0
0.95 0.075 0
0.975 0.075 0
0.95 0.1 0
0.975 0.1 0
0.975 0.075 0
1 0.075 0
0.975 0.1 0
1 0.1 0
1 0.05 0
1.025 0.05 0
1 0.075 0
1.025 0.075 0
1.025 0.05 0
1.05 0.05 0
1.025 0.075 0
1.05 0.075 0
1 0.075 0
1.025 0.075 0
1 0.1 0
1.025 0.1 0
1.025 0.075 0
1.05 0.075 0
1.025 0.1 0
1.05 0.1 0
1.05 0.05 0
1.075 0.05 0
1.05 0.075 0
1.075 0.075 0
1.075 0.05 0
1.1 0.05 0
1.075 0.075 0
1.1 0.075 0
1.05 0.075 0
1.075 0.075 0
1.05 0.1 0
1.075 0.1 0
1.075 0.075 0
1.1 0.075 0
1.075 0.1 0
1.1 0.1 0
1.1 0.05 0
1.125 0.05 0
1.1 0.075 0
1.125 0.075 0
1.125 0.05 0
1.15 0.05 0
1.125 0.075 0
1.15 0.075 0
1.1 0.075 0
1.125 0.075 0
1.1 0.1 0
1.125 0.1 0
1.125 0.075 0
1.15 0.075 0
1.125 0.1 0
1.15 0.1 0
1.15 0.05 0
1.175 0.05 0
1.15 0.075 0
1.175 0.075 0
1.175 0.05 0
1.2 0.05 0
1.175 0.075 0
1.2 0.075 0
1.15 0.075 0
1.175 0.075 0
1.15 0.1 0
1.175 0.1 0
1.175 0.075 0
1.2 0.075 0
1.175 0.1 0
1.2 0.1 0
1.2 0.05 0
1.225 0.05 0
1.2 0.075 0
1.225 0.075 0
1.225 0.05 0
1.25 0.05 0
1.225 0.075 0
1.25 0.075 0
1.2 0.075 0
1.225 0.075 0
1.2 0.1 0
1.225 0.1 0
1.225 0.075 0
[...]
POINT_DATA 11912
SCALARS x_displacement double 1
LOOKUP_TABLE default
0 -1.46517 0 -0.855017 -1.46517 -2.55542 -0.855017 -1.74678 -2.55542 -3.44704 -1.74678 -2.52283 -3.44704 -4.2066 -2.52283 -3.21072 -4.2066 -4.87832 -3.21072 -3.82502 -4.87832 -5.50175 -3.82502 -4.38314 -5.50175 -6.11134 -4.38314 -4.9145 -6.11134 -6.72902 -4.9145 -5.43624 -6.72902 -7.34764 -5.43624 -5.96589 -7.34764 -7.95042 -5.96589 -6.50405 -7.95042 -8.53265 -6.50405 -7.04296 -8.53265 -9.10689 -7.04296 -7.5755 -9.10689 -9.67992 -7.5755 -8.10051 -9.67992 -10.2463 -8.10051 -8.61797 -10.2463 -10.7999 -8.61797 -9.13202 -10.7999 -11.339 -9.13202 -9.64404 -11.339 -11.8632 -9.64404 -10.1544 -11.8632 -12.3725 -10.1544 -10.663 -12.3725 -12.8667 -10.663 -11.1702 -12.8667 -13.3467 -11.1702 -11.6746 -13.3467 -13.8222 -11.6746 -12.1706 -13.8222 -14.3187 -12.1706 -12.6522 -14.3187 -14.8621 -12.6522 -13.1197 -14.8621 -15.4346 -13.1197 -13.5729 -15.4346 -15.9415 -13.5729 -13.9963 -15.9415 -16.3108 -13.9963 -14.3862 -1.74678 -2.52283 -1.2065 -1.81667 -2.52283 -3.21072 -1.81667 -2.38216 -3.21072 -3.82502 -2.38216 -2.89701 -3.82502 -4.38314 -2.89701 -3.35224 -2.38216 -2.89701 -1.66951 -2.09127 -2.89701 -3.35224 -2.09127 -2.4697 -1.06708 -1.19094 -0.0199616 -0.0187343 -1.19094 -1.25256 -0.0187343 -0.0182864 -1.35143 -1.35787 -0.0154676 -0.0158149 -2.06995 -2.33361 -0.0164244 -0.016469 -2.33361 -2.40921 -0.016469 -0.0164989 -0.239409 -0.146955 0.344877 0.487263 -0.0199616 -0.0187343 1.02843 1.15388 -0.0187343 -0.0182864 1.15388 1.21631 -0.0164244 -0.016469 2.03699 2.30061 -0.016469 -0.0164989 2.30061 2.37613 1.66101 2.08377 2.37831 2.89289 2.08377 2.46281 2.89289 3.34796 1.20319 1.81308 1.74892 2.52502 1.81308 2.37831 2.52502 3.21204 2.37831 2.89289 3.21204 3.82476 2.89289 3.34796 3.82476 4.38091 0 0.856336 0 1.47277 0.856336 1.74892 1.47277 2.56588 1.74892 2.52502 2.56588 3.45733 2.52502 3.21204 3.45733 4.21488 3.21204 3.82476 4.21488 4.88323 3.82476 4.38091 4.88323 5.50202 4.38091 4.90967 5.50202 6.10579 4.90967 5.42774 6.10579 6.71707 5.42774 5.95204 6.71707 7.33036 5.95204 6.48425 7.33036 7.9301 6.48425 7.01747 7.9301 8.5103 7.01747 7.54548 8.5103 9.08148 7.54548 8.06747 9.08148 9.65078 8.06747 8.58292 9.65078 10.213 8.58292 9.09582 10.213 10.7622 9.09582 9.60721 10.7622 11.2977 9.60721 10.117 11.2977 11.8194 10.117 10.6253 11.8194 12.3273 10.6253 11.1323 12.3273 12.8213 11.1323 11.6367 12.8213 13.3022 11.6367 12.133 13.3022 13.7792 12.133 12.6152 13.7792 14.2773 12.6152 13.0834 14.2773 14.8223 13.0834 13.5374 14.8223 15.3963 13.5374 13.9613 15.3963 15.9045 13.9613 14.3514 15.9045 16.2741 -16.3108 -16.4734 -15.3485 -15.5077 -16.4734 -16.6075 -15.5077 -15.6685 -15.3485 -15.5077 -14.3862 -14.5637 -15.5077 -15.6685 -14.5637 -14.7142 -16.6075 -16.7206 -15.6685 -15.8219 -16.7206 -16.7361 -15.8219 -15.9575 -15.6685 -15.8219 -14.7142 -14.8453 -15.8219 -15.9575 -14.8453 -14.9847 -16.7361 -16.8394 -15.9575 -16.0747 -16.8394 -17.3697 -16.0747 -16.1309 -15.9575 -16.0747 -14.9847 -15.1405 -16.0747 -16.1309 -15.1405 -15.2237 -17.3697 -17.6969 -16.1309 -16.4155 -17.6969 -17.9523 -16.4155 -16.6696 -16.1309 -16.4155 -15.2237 -15.2319 -16.4155 -16.6696 -15.2319 -15.3685 -17.9523 -18.1784 -16.6696 -16.8944 -18.1784 -18.3799 -16.8944 -17.1174 -16.6696 -16.8944 -15.3685 -15.6761 -16.8944 -17.1174 -15.6761 -15.9066 -18.3799 -18.5681 -17.1174 -17.3154 -18.5681 -18.7372 -17.3154 -17.4922 -17.1174 -17.3154 -15.9066 -16.1058 -17.3154 -17.4922 -16.1058 -16.2906 -18.7372 -18.8869 -17.4922 -17.6507 -18.8869 -19.0176 -17.6507 -17.7909 -17.4922 -17.6507 -16.2906 -16.4562 -17.6507 -17.7909 -16.4562 -16.6049 -19.0176 -19.1297 -17.7909 -17.9134 -19.1297 -19.2234 -17.9134 -18.0186 -17.7909 -17.9134 -16.6049 -16.7371 -17.9134 -18.0186 -16.7371 -16.8527 -19.2234 -19.299 -18.0186 -18.1069 -19.299 -19.357 -18.1069 -18.1789 -18.0186 -18.1069 -16.8527 -16.9522 -18.1069 -18.1789 -16.9522 -17.0359 -19.357 -19.3984 -18.1789 -18.2355 -19.3984 -19.4247 -18.2355 -18.278 -18.1789 -18.2355 -17.0359 -17.1049 -18.2355 -18.278 -17.1049 -17.1601 -19.4247 -19.4378 -18.278 -18.308 -19.4378 -19.4401 -18.308 -18.3272 -18.278 -18.308 -17.1601 -17.2028 -18.308 -18.3272 -17.2028 -17.234 -19.4401 -19.4344 -18.3272 -18.3377 -19.4344 -19.4241 -18.3377 -18.3419 -18.3272 -18.3377 -17.234 -17.2554 -18.3377 -18.3419 -17.2554 -17.2687 -19.4241 -19.4127 -18.3419 -18.3423 -19.4127 -19.4036 -18.3423 -18.3409 -18.3419 -18.3423 -17.2687 -17.2759 -18.3423 -18.3409 -17.2759 -17.279 -19.4036 -19.3989 -18.3409 -18.3397 -19.3989 -19.3979 -18.3397 -18.3398 -18.3409 -18.3397 -17.279 -17.2803 -18.3397 -18.3398 -17.2803 -17.2819 0 -0.427509 0 -0.353941 -0.427509 -0.855017 -0.353941 -0.723708 0 -0.353941 0 -0.283701 -0.353941 -0.723708 -0.283701 -0.599386 -0.855017 -1.3009 -0.723708 -1.09505 -1.3009 -1.74678 -1.09505 -1.47664 -0.723708 -1.09505 -0.599386 -0.90862 -1.09505 -1.47664 -0.90862 -1.2065 -4.38314 -4.64882 -3.86769 -4.09596 -4.64882 -4.9145 -4.09596 -4.32239 -3.86769 -4.09596 -3.35224 -3.56393 -4.09596 -4.32239 -3.56393 -3.74912 -4.9145 -5.17537 -4.32239 -4.5518 -5.17537 -5.43624 -4.5518 -4.78813 -4.32239 -4.5518 -3.74912 -3.93161 -4.5518 -4.78813 -3.93161 -4.12968 -5.43624 -5.70107 -4.78813 -5.02506 -5.70107 -5.96589 -5.02506 -5.26742 -4.78813 -5.02506 -4.12968 -4.34012 -5.02506 -5.26742 -4.34012 -4.55787 -5.96589 -6.23497 -5.26742 -5.52068 -6.23497 -6.50405 -5.52068 -5.77908 -5.26742 -5.52068 -4.55787 -4.79327 -5.52068 -5.77908 -4.79327 -5.04252 -6.50405 -6.77351 -5.77908 -6.04389 -6.77351 -7.04296 -6.04389 -6.30251 -5.77908 -6.04389 -5.04252 -5.30537 -6.04389 -6.30251 -5.30537 -5.56588 -7.04296 -7.30923 -6.30251 -6.56627 -7.30923 -7.5755 -6.56627 -6.81908 -6.30251 -6.56627 -5.56588 -5.83203 -6.56627 -6.81908 -5.83203 -6.07368 -7.5755 -7.83801 -6.81908 -7.06813 -7.83801 -8.10051 -7.06813 -7.31543 -6.81908 -7.06813 -6.07368 -6.29743 -7.06813 -7.31543 -6.29743 -6.52979 -8.10051 -8.35924 -7.31543 -7.56143 -8.35924 -8.61797 -7.56143 -7.80734 -7.31543 -7.56143 -6.52979 -6.76236 -7.56143 -7.80734 -6.76236 -6.99457 -8.61797 -8.875 -7.80734 -8.05388 -8.875 -9.13202 -8.05388 -8.30145 -7.80734 -8.05388 -6.99457 -7.22988 -8.05388 -8.30145 -7.22988 -7.46815 -9.13202 -9.38803 -8.30145 -8.55008 -9.38803 -9.64404 -8.55008 -8.80001 -8.30145 -8.55008 -7.46815 -7.70928 -8.55008 -8.80001 -7.70928 -7.95325 -9.64404 -9.8992 -8.80001 -9.05104 -9.8992 -10.1544 -9.05104 -9.3034 -8.80001 -9.05104 -7.95325 -8.20006 -9.05104 -9.3034 -8.20006 -8.4497 -10.1544 -10.4087 -9.3034 -9.55686 -10.4087 -10.663 -9.55686 -9.81167 -9.3034 -9.55686 -8.4497 -8.7022 -9.55686 -9.81167 -8.7022 -8.9575 -10.663 -10.9166 -9.81167 -10.0676 -10.9166 -11.1702 -10.0676 -10.3248 -9.81167 -10.0676 -8.9575 -9.21563 -10.0676 -10.3248 -9.21563 -9.47654 -11.1702 -11.4224 -10.3248 -10.583 -11.4224 -11.6746 -10.583 -10.8412 -10.3248 -10.583 -9.47654 -9.74025 -10.583 -10.8412 -9.74025 -10.0068 -11.6746 -11.9226 -10.8412 -11.0978 -11.9226 -12.1706 -11.0978 -11.3489 -10.8412 -11.0978 -10.0068 -10.2754 -11.0978 -11.3489 -10.2754 -10.5426 -12.1706 -12.4114 -11.3489 -11.5933 -12.4114 -12.6522 -11.5933 -11.8268 -11.3489 -11.5933 -10.5426 -10.8002 -11.5933 -11.8268 -10.8002 -11.0376 -12.6522 -12.886 -11.8268 -12.0522 -12.886 -13.1197 -12.0522 -12.2661 -11.8268 -12.0522 -11.0376 -11.2551 -12.0522 -12.2661 -11.2551 -11.4604 -13.1197 -13.3463 -12.2661 -12.4781 -13.3463 -13.5729 -12.4781 -12.6827 -12.2661 -12.4781 -11.4604 -11.6485 -12.4781 -12.6827 -11.6485 -11.8234 -13.5729 -13.7846 -12.6827 -12.8826 -13.7846 -13.9963 -12.8826 -13.075 -12.6827 -12.8826 -11.8234 -11.9896 -12.8826 -13.075 -11.9896 -12.1525 -13.9963 -14.1913 -13.075 -13.2589 -14.1913 -14.3862 -13.2589 -13.4295 -13.075 -13.2589 -12.1525 -12.3118 -13.2589 -13.4295 -12.3118 -12.4603 -14.3862 -14.5637 -13.4295 -13.5823 -14.5637 -14.7142 -13.5823 -13.7239 -13.4295 -13.5823 -12.4603 -12.5972 -13.5823 -13.7239 -12.5972 -12.7283 -14.7142 -14.8453 -13.7239 -13.8601 -14.8453 -14.9847 -13.8601 -13.9962 -13.7239 -13.8601 -12.7283 -12.8569 -13.8601 -13.9962 -12.8569 -12.9873 -14.9847 -15.1405 -13.9962 -14.1186 -15.1405 -15.2237 -14.1186 -14.2467 -13.9962 -14.1186 -12.9873 -13.1173 -14.1186 -14.2467 -13.1173 -13.2465 -15.2237 -15.2319 -14.2467 -14.3859 -15.2319 -15.3685 -14.3859 -14.4874 -14.2467 -14.3859 -13.2465 -13.386 -14.3859 -14.4874 -13.386 -13.5411 -15.3685 -15.6761 -14.4874 -14.519 -15.6761 -15.9066 -14.519 -14.7411 -14.4874 -14.519 -13.5411 -13.6328 -14.519 -14.7411 -13.6328 -13.6462 -15.9066 -16.1058 -14.7411 -14.9418 -16.1058 -16.2906 -14.9418 -15.1276 -14.7411 -14.9418 -13.6462 -13.775 -14.9418 -15.1276 -13.775 -14.0113 -16.2906 -16.4562 -15.1276 -15.3018 -16.4562 -16.6049 -15.3018 -15.4578 -15.1276 -15.3018 -14.0113 -14.1879 -15.3018 -15.4578 -14.1879 -14.3446 -16.6049 -16.7371 -15.4578 -15.5983 -16.7371 -16.8527 -15.5983 -15.7237 -15.4578 -15.5983 -14.3446 -14.4974 -15.5983 -15.7237 -14.4974 -14.6297 -16.8527 -16.9522 -15.7237 -15.8323 -16.9522 -17.0359 -15.8323 -15.9256 -15.7237 -15.8323 -14.6297 -14.7446 -15.8323 -15.9256 -14.7446 -14.8461 -17.0359 -17.1049 -15.9256 -16.0048 -17.1049 -17.1601 -16.0048 -16.0702 -15.9256 -16.0048 -14.8461 -14.9341 -16.0048 -16.0702 -14.9341 -15.0082 -17.1601 -17.2028 -16.0702 -16.1225 -17.2028 -17.234 -16.1225 -16.1625 -16.0702 -16.1225 -15.0082 -15.0682 -16.1225 -16.1625 -15.0682 -15.1146 -17.234 -17.2554 -16.1625 -16.1912 -17.2554 -17.2687 -16.1912 -16.2101 -16.1625 -16.1912 -15.1146 -15.1483 -16.1912 -16.2101 -15.1483 -15.1707 -17.2687 -17.2759 -16.2101 -16.221 -17.2759 -17.279 -16.221 -16.2263 -16.2101 -16.221 -15.1707 -15.1835 -16.221 -16.2263 -15.1835 -15.1892 -17.279 -17.2803 -16.2263 -16.2285 -17.2803 -17.2819 -16.2285 -16.2309 -16.2263 -16.2285 -15.1892 -15.1911 -16.2285 -16.2309 -15.1911 -15.1934 0 -0.283701 0 -0.230989 -0.283701 -0.599386 -0.230989 -0.479118 0 -0.230989 0 -0.14121 -0.230989 -0.479118 -0.14121 -0.297204 -0.599386 -0.90862 -0.479118 -0.716839 -0.90862 -1.2065 -0.716839 -0.984118 -0.479118 -0.716839 -0.297204 -0.520632 -0.716839 -0.984118 -0.520632 -0.783837 -1.2065 -1.51158 -0.984118 -1.25411 -1.51158 -1.81667 -1.25411 -1.5132 -0.984118 -1.25411 -0.783837 -1.00447 -1.25411 -1.5132 -1.00447 -1.2278 -1.81667 -2.09941 -1.5132 -1.7707 -2.09941 -2.38216 -1.7707 -2.02584 -1.5132 -1.7707 -1.2278 -1.45466 -1.7707 -2.02584 -1.45466 -1.66951 -3.35224 -3.56393 -2.91097 -3.07995 -3.56393 -3.74912 -3.07995 -3.23176 -2.91097 -3.07995 -2.4697 -2.64333 -3.07995 -3.23176 -2.64333 -2.79371 -3.74912 -3.93161 -3.23176 -3.35814 -3.93161 -4.12968 -3.35814 -3.48308 -3.23176 -3.35814 -2.79371 -2.9219 -3.35814 -3.48308 -2.9219 -3.04842 -4.12968 -4.34012 -3.48308 -3.64702 -4.34012 -4.55787 -3.64702 -3.85583 -3.48308 -3.64702 -3.04842 -3.18336 -3.64702 -3.85583 -3.18336 -3.32109 -4.55787 -4.79327 -3.85583 -4.0686 -4.79327 -5.04252 -4.0686 -4.28706 -3.85583 -4.0686 -3.32109 -3.46453 -4.0686 -4.28706 -3.46453 -3.56903 -5.04252 -5.30537 -4.28706 -4.53789 -5.30537 -5.56588 -4.53789 -4.82622 -4.28706 -4.53789 -3.56903 -3.7419 -4.53789 -4.82622 -3.7419 -4.03835 -5.56588 -5.83203 -4.82622 -5.09064 -5.83203 -6.07368 -5.09064 -5.32317 -4.82622 -5.09064 -4.03835 -4.36647 -5.09064 -5.32317 -4.36647 -4.55846 -6.07368 -6.29743 -5.32317 -5.52387 -6.29743 -6.52979 -5.52387 -5.74042 -5.32317 -5.52387 -4.55846 -4.74664 -5.52387 -5.74042 -4.74664 -4.95283 -6.52979 -6.76236 -5.74042 -5.96019 -6.76236 -6.99457 -5.96019 -6.179 -5.74042 -5.96019 -4.95283 -5.15535 -5.96019 -6.179 -5.15535 -5.3628 -6.99457 -7.22988 -6.179 -6.40325 -7.22988 -7.46815 -6.40325 -6.63231 -6.179 -6.40325 -5.3628 -5.57631 -6.40325 -6.63231 -5.57631 -5.79612 -7.46815 -7.70928 -6.63231 -6.86592 -7.70928 -7.95325 -6.86592 -7.10399 -6.63231 -6.86592 -5.79612 -6.0222 -6.86592 -7.10399 -6.0222 -6.25438 -7.95325 -8.20006 -7.10399 -7.34653 -8.20006 -8.4497 -7.34653 -7.59353 -7.10399 -7.34653 -6.25438 -6.49266 -7.34653 -7.59353 -6.49266 -6.73701 -8.4497 -8.7022 -7.59353 -7.84498 -8.7022 -8.9575 -7.84498 -8.10085 -7.59353 -7.84498 -6.73701 -6.98743 -7.84498 -8.10085 -6.98743 -7.24383 -8.9575 -9.21563 -8.10085 -8.36105 -9.21563 -9.47654 -8.36105 -8.62555 -8.10085 -8.36105 -7.24383 -7.50609 -8.36105 -8.62555 -7.50609 -7.77415 -9.47654 -9.74025 -8.62555 -8.89465 -9.74025 -10.0068 -8.89465 -9.16993 -8.62555 -8.89465 -7.77415 -8.0486 -8.89465 -9.16993 -8.0486 -8.33351 -10.0068 -10.2754 -9.16993 -9.45734 -10.2754 -10.5426 -9.45734 -9.7646 -9.16993 -9.45734 -8.33351 -8.64662 -9.45734 -9.7646 -8.64662 -9.03819 -10.5426 -10.8002 -9.7646 -10.0591 -10.8002 -11.0376 -10.0591 -10.3021 -9.7646 -10.0591 -9.03819 -9.37692 -10.0591 -10.3021 -9.37692 -9.67099 -11.0376 -11.2551 -10.3021 -10.5281 -11.2551 -11.4604 -10.5281 -10.7264 -10.3021 -10.5281 -9.67099 -9.92592 -10.5281 -10.7264 -9.92592 -10.0544 -11.4604 -11.6485 -10.7264 -10.8725 -11.6485 -11.8234 -10.8725 -10.9921 -10.7264 -10.8725 -10.0544 -10.1296 -10.8725 -10.9921 -10.1296 -10.1847 -11.8234 -11.9896 -10.9921 -11.1033 -11.9896 -12.1525 -11.1033 -11.2144 -10.9921 -11.1033 -10.1847 -10.2308 -11.1033 -11.2144 -10.2308 -10.2703 -12.1525 -12.3118 -11.2144 -11.3296 -12.3118 -12.4603 -11.3296 -11.4555 -11.2144 -11.3296 -10.2703 -10.3136 -11.3296 -11.4555 -10.3136 -10.3951 -12.4603 -12.5972 -11.4555 -11.5834 -12.5972 -12.7283 -11.5834 -11.7095 -11.4555 -11.5834 -10.3951 -10.5172 -11.5834 -11.7095 -10.5172 -10.6607 -12.7283 -12.8569 -11.7095 -11.8393 -12.8569 -12.9873 -11.8393 -11.973 -11.7095 -11.8393 -10.6607 -10.8083 -11.8393 -11.973 -10.8083 -10.9516 -12.9873 -13.1173 -11.973 -12.1079 -13.1173 -13.2465 -12.1079 -12.2465 -11.973 -12.1079 -10.9516 -11.0947 -12.1079 -12.2465 -11.0947 -11.2382 -13.2465 -13.386 -12.2465 -12.3897 -13.386 -13.5411 -12.3897 -12.5222 -12.2465 -12.3897 -11.2382 -11.3832 -12.3897 -12.5222 -11.3832 -11.5284 -13.5411 -13.6328 -12.5222 -12.6652 -13.6328 -13.6462 -12.6652 -12.8347 -12.5222 -12.6652 -11.5284 -11.676 -12.6652 -12.8347 -11.676 -11.8227 -13.6462 -13.775 -12.8347 -12.9342 -13.775 -14.0113 -12.9342 -12.9164 -12.8347 -12.9342 -11.8227 -11.9647 -12.9342 -12.9164 -11.9647 -12.074 -14.0113 -14.1879 -12.9164 -13.0965 -14.1879 -14.3446 -13.0965 -13.2776 -12.9164 -13.0965 -12.074 -12.175 -13.0965 -13.2776 -12.175 -12.2284 -14.3446 -14.4974 -13.2776 -13.4346 -14.4974 -14.6297 -13.4346 -13.5648 -13.2776 -13.4346 -12.2284 -12.3888 -13.4346 -13.5648 -12.3888 -12.5236 -14.6297 -14.7446 -13.5648 -13.686 -14.7446 -14.8461 -13.686 -13.7959 -13.5648 -13.686 -12.5236 -12.6534 -13.686 -13.7959 -12.6534 -12.7763 -14.8461 -14.9341 -13.7959 -13.8926 -14.9341 -15.0082 -13.8926 -13.9741 -13.7959 -13.8926 -12.7763 -12.8801 -13.8926 -13.9741 -12.8801 -12.9677 -15.0082 -15.0682 -13.9741 -14.0406 -15.0682 -15.1146 -14.0406 -14.0923 -13.9741 -14.0406 -12.9677 -13.0407 -14.0406 -14.0923 -13.0407 -13.097 -15.1146 -15.1483 -14.0923 -14.1298 -15.1483 -15.1707 -14.1298 -14.1544 -14.0923 -14.1298 -13.097 -13.1378 -14.1298 -14.1544 -13.1378 -13.1644 -15.1707 -15.1835 -14.1544 -14.1679 -15.1835 -15.1892 -14.1679 -14.1729 -14.1544 -14.1679 -13.1644 -13.1781 -14.1679 -14.1729 -13.1781 -13.1818 -15.1892 -15.1911 -14.1729 -14.1734 -15.1911 -15.1934 -14.1734 -14.1746 -14.1729 -14.1734 -13.1818 -13.1799 -14.1734 -14.1746 -13.1799 -13.1787 0 -0.14121 0 -0.0893825 -0.14121 -0.297204 -0.0893825 -0.0824067 0 -0.0893825 0 -0.142294 -0.0893825 -0.0824067 -0.142294 -0.320754 -0.297204 -0.520632 -0.0824067 -0.3426 -0.520632 -0.783837 -0.3426 -0.555095 -0.0824067 -0.3426 -0.320754 -0.55833 -0.3426 -0.555095 -0.55833 -0.362378 -0.783837 -1.00447 -0.555095 -0.757059 -1.00447 -1.2278 -0.757059 -0.961459 -0.555095 -0.757059 -0.362378 -0.499423 -0.757059 -0.961459 -0.499423 -0.666711 -1.2278 -1.45466 -0.961459 -1.1466 -1.45466 -1.66951 -1.1466 -1.33823 -0.961459 -1.1466 -0.666711 -0.840189 -1.1466 -1.33823 -0.840189 -1.02304 -1.66951 -1.88039 -1.33823 -1.53505 -1.88039 -2.09127 -1.53505 -1.7213 -1.33823 -1.53505 -1.02304 -1.18971 -1.53505 -1.7213 -1.18971 -1.36314 -2.09127 -2.28049 -1.7213 -1.90411 -2.28049 -2.4697 -1.90411 -2.07931 -1.7213 -1.90411 -1.36314 -1.54075 -1.90411 -2.07931 -1.54075 -1.70994 -2.4697 -2.64333 -2.07931 -2.24711 -2.64333 -2.79371 -2.24711 -2.40797 -2.07931 -2.24711 -1.70994 -1.87648 -2.24711 -2.40797 -1.87648 -2.04281 -2.79371 -2.9219 -2.40797 -2.56365 -2.9219 -3.04842 -2.56365 -2.72069 -2.40797 -2.56365 -2.04281 -2.20798 -2.56365 -2.72069 -2.20798 -2.37192 -3.04842 -3.18336 -2.72069 -2.8746 -3.18336 -3.32109 -2.8746 -3.02797 -2.72069 -2.8746 -2.37192 -2.53694 -2.8746 -3.02797 -2.53694 -2.70944 -3.32109 -3.46453 -3.02797 -3.19702 -3.46453 -3.56903 -3.19702 -3.37171 -3.02797 -3.19702 -2.70944 -2.88063 -3.19702 -3.37171 -2.88063 -3.05058 -3.56903 -3.7419 -3.37171 -3.56049 -3.7419 -4.03835 -3.56049 -3.72949 -3.37171 -3.56049 -3.05058 -3.24107 -3.56049 -3.72949 -3.24107 -3.4312 -4.03835 -4.36647 -3.72949 -3.60597 -4.36647 -4.55846 -3.60597 -3.81373 -3.72949 -3.60597 -3.4312 -3.62577 -3.60597 -3.81373 -3.62577 -3.8251 -4.55846 -4.74664 -3.81373 -4.14654 -4.74664 -4.95283 -4.14654 -4.44969 -3.81373 -4.14654 -3.8251 -3.74245 -4.14654 -4.44969 -3.74245 -3.71604 -4.95283 -5.15535 -4.44969 -4.6619 -5.15535 -5.3628 -4.6619 -4.8743 -4.44969 -4.6619 -3.71604 -4.08552 -4.6619 -4.8743 -4.08552 -4.42035 -5.3628 -5.57631 -4.8743 -5.12574 -5.57631 -5.79612 -5.12574 -5.36511 -4.8743 -5.12574 -4.42035 -4.65859 -5.12574 -5.36511 -4.65859 -4.90798 -5.79612 -6.0222 -5.36511 -5.60845 -6.0222 -6.25438 -5.60845 -5.85379 -5.36511 -5.60845 -4.90798 -5.15277 -5.60845 -5.85379 -5.15277 -5.41319 -6.25438 -6.49266 -5.85379 -6.10672 -6.49266 -6.73701 -6.10672 -6.36973 -5.85379 -6.10672 -5.41319 -5.66841 -6.10672 -6.36973 -5.66841 -5.94936 -6.73701 -6.98743 -6.36973 -6.64527 -6.98743 -7.24383 -6.64527 -6.92966 -6.36973 -6.64527 -5.94936 -6.24765 -6.64527 -6.92966 -6.24765 -6.55115 -7.24383 -7.50609 -6.92966 -7.22219 -7.50609 -7.77415 -7.22219 -7.52928 -6.92966 -7.22219 -6.55115 -6.85853 -7.22219 -7.52928 -6.85853 -7.17103 -7.77415 -8.0486 -7.52928 -7.87375 -8.0486 -8.33351 -7.87375 -8.31331 -7.52928 -7.87375 -7.17103 -7.48547 -7.87375 -8.31331 -7.48547 -7.76979 -8.33351 -8.64662 -8.31331 -8.98506 -8.64662 -9.03819 -8.98506 -9.14151 -8.31331 -8.98506 -7.76979 -8.02941 -8.98506 -9.14151 -8.02941 -8.33836 -9.03819 -9.37692 -9.14151 -9.09433 -9.37692 -9.67099 -9.09433 -9.24683 -9.14151 -9.09433 -8.33836 -8.60628 -9.09433 -9.24683 -8.60628 -8.59213 -9.67099 -9.92592 -9.24683 -9.32352 -9.92592 -10.0544 -9.32352 -9.36678 -9.24683 -9.32352 -8.59213 -8.61742 -9.32352 -9.36678 -8.61742 -8.62929 -10.0544 -10.1296 -9.36678 -9.38713 -10.1296 -10.1847 -9.38713 -9.39177 -9.36678 -9.38713 -8.62929 -8.62478 -9.38713 -9.39177 -8.62478 -8.59665 -10.1847 -10.2308 -9.39177 -9.38091 -10.2308 -10.2703 -9.38091 -9.35639 -9.39177 -9.38091 -8.59665 -8.54898 -9.38091 -9.35639 -8.54898 -8.48167 -10.2703 -10.3136 -9.35639 -9.31113 -10.3136 -10.3951 -9.31113 -9.28109 -9.35639 -9.31113 -8.48167 -8.40015 -9.31113 -9.28109 -8.40015 -8.21123 -10.3951 -10.5172 -9.28109 -9.42641 -10.5172 -10.6607 -9.42641 -9.60983 -9.28109 -9.42641 -8.21123 -8.34379 -9.42641 -9.60983 -8.34379 -8.54598 -10.6607 -10.8083 -9.60983 -9.76126 -10.8083 -10.9516 -9.76126 -9.91834 -9.60983 -9.76126 -8.54598 -8.72092 -9.76126 -9.91834 -8.72092 -8.89958 -10.9516 -11.0947 -9.91834 -10.0781 -11.0947 -11.2382 -10.0781 -10.2295 -9.91834 -10.0781 -8.89958 -9.06099 -10.0781 -10.2295 -9.06099 -9.21962 -11.2382 -11.3832 -10.2295 -10.379 -11.3832 -11.5284 -10.379 -10.5282 -10.2295 -10.379 -9.21962 -9.37851 -10.379 -10.5282 -9.37851 -9.5316 -11.5284 -11.676 -10.5282 -10.6801 -11.676 -11.8227 -10.6801 -10.8267 -10.5282 -10.6801 -9.5316 -9.68207 -10.6801 -10.8267 -9.68207 -9.83076 -11.8227 -11.9647 -10.8267 -10.9597 -11.9647 -12.074 -10.9597 -11.1075 -10.8267 -10.9597 -9.83076 -9.98039 -10.9597 -11.1075 -9.98039 -10.1329 -12.074 -12.175 -11.1075 -11.2767 -12.175 -12.2284 -11.2767 -11.3651 -11.1075 -11.2767 -10.1329 -10.2732 -11.2767 -11.3651 -10.2732 -10.419 -12.2284 -12.3888 -11.3651 -11.3408 -12.3888 -12.5236 -11.3408 -11.4952 -11.3651 -11.3408 -10.419 -10.5818 -11.3408 -11.4952 -10.5818 -10.6943 -12.5236 -12.6534 -11.4952 -11.6