# vtk DataFile Version 3.0
#This file was generated by the deal.II library on 2015/9/1 at 17:12:56
ASCII
DATASET UNSTRUCTURED_GRID

POINTS 11912 double
0 0 0
0.05 0 0
0 0.05 0
0.05 0.05 0
0.05 0 0
0.1 0 0
0.05 0.05 0
0.1 0.05 0
0.1 0 0
0.15 0 0
0.1 0.05 0
0.15 0.05 0
0.15 0 0
0.2 0 0
0.15 0.05 0
0.2 0.05 0
0.2 0 0
0.25 0 0
0.2 0.05 0
0.25 0.05 0
0.25 0 0
0.3 0 0
0.25 0.05 0
0.3 0.05 0
0.3 0 0
0.35 0 0
0.3 0.05 0
0.35 0.05 0
0.35 0 0
0.4 0 0
0.35 0.05 0
0.4 0.05 0
0.4 0 0
0.45 0 0
0.4 0.05 0
0.45 0.05 0
0.45 0 0
0.5 0 0
0.45 0.05 0
0.5 0.05 0
0.5 0 0
0.55 0 0
0.5 0.05 0
0.55 0.05 0
0.55 0 0
0.6 0 0
0.55 0.05 0
0.6 0.05 0
0.6 0 0
0.65 0 0
0.6 0.05 0
0.65 0.05 0
0.65 0 0
0.7 0 0
0.65 0.05 0
0.7 0.05 0
0.7 0 0
0.75 0 0
0.7 0.05 0
0.75 0.05 0
0.75 0 0
0.8 0 0
0.75 0.05 0
0.8 0.05 0
0.8 0 0
0.85 0 0
0.8 0.05 0
0.85 0.05 0
0.85 0 0
0.9 0 0
0.85 0.05 0
0.9 0.05 0
0.9 0 0
0.95 0 0
0.9 0.05 0
0.95 0.05 0
0.95 0 0
1 0 0
0.95 0.05 0
1 0.05 0
1 0 0
1.05 0 0
1 0.05 0
1.05 0.05 0
1.05 0 0
1.1 0 0
1.05 0.05 0
1.1 0.05 0
1.1 0 0
1.15 0 0
1.1 0.05 0
1.15 0.05 0
1.15 0 0
1.2 0 0
1.15 0.05 0
1.2 0.05 0
1.2 0 0
1.25 0 0
1.2 0.05 0
1.25 0.05 0
1.25 0 0
1.3 0 0
1.25 0.05 0
1.3 0.05 0
0.1 0.05 0
0.15 0.05 0
0.1 0.1 0
0.15 0.1 0
0.15 0.05 0
0.2 0.05 0
0.15 0.1 0
0.2 0.1 0
0.2 0.05 0
0.25 0.05 0
0.2 0.1 0
0.25 0.1 0
0.25 0.05 0
0.3 0.05 0
0.25 0.1 0
0.3 0.1 0
0.2 0.1 0
0.25 0.1 0
0.2 0.15 0
0.25 0.15 0
0.25 0.1 0
0.3 0.1 0
0.25 0.15 0
0.3 0.15 0
0.85 0.45 0
0.9 0.45 0
0.85 0.5 0
0.9 0.5 0
0.9 0.45 0
0.95 0.45 0
0.9 0.5 0
0.95 0.5 0
1.45 0.45 0
1.5 0.45 0
1.45 0.5 0
1.5 0.5 0
1.9 0.45 0
1.95 0.45 0
1.9 0.5 0
1.95 0.5 0
1.95 0.45 0
2 0.45 0
1.95 0.5 0
2 0.5 0
0.65 0.5 0
0.7 0.5 0
0.65 0.55 0
0.7 0.55 0
0.85 0.5 0
0.9 0.5 0
0.85 0.55 0
0.9 0.55 0
0.9 0.5 0
0.95 0.5 0
0.9 0.55 0
0.95 0.55 0
1.9 0.5 0
1.95 0.5 0
1.9 0.55 0
1.95 0.55 0
1.95 0.5 0
2 0.5 0
1.95 0.55 0
2 0.55 0
0.2 0.85 0
0.25 0.85 0
0.2 0.9 0
0.25 0.9 0
0.25 0.85 0
0.3 0.85 0
0.25 0.9 0
0.3 0.9 0
0.1 0.9 0
0.15 0.9 0
0.1 0.95 0
0.15 0.95 0
0.15 0.9 0
0.2 0.9 0
0.15 0.95 0
0.2 0.95 0
0.2 0.9 0
0.25 0.9 0
0.2 0.95 0
0.25 0.95 0
0.25 0.9 0
0.3 0.9 0
0.25 0.95 0
0.3 0.95 0
0 0.95 0
0.05 0.95 0
0 1 0
0.05 1 0
0.05 0.95 0
0.1 0.95 0
0.05 1 0
0.1 1 0
0.1 0.95 0
0.15 0.95 0
0.1 1 0
0.15 1 0
0.15 0.95 0
0.2 0.95 0
0.15 1 0
0.2 1 0
0.2 0.95 0
0.25 0.95 0
0.2 1 0
0.25 1 0
0.25 0.95 0
0.3 0.95 0
0.25 1 0
0.3 1 0
0.3 0.95 0
0.35 0.95 0
0.3 1 0
0.35 1 0
0.35 0.95 0
0.4 0.95 0
0.35 1 0
0.4 1 0
0.4 0.95 0
0.45 0.95 0
0.4 1 0
0.45 1 0
0.45 0.95 0
0.5 0.95 0
0.45 1 0
0.5 1 0
0.5 0.95 0
0.55 0.95 0
0.5 1 0
0.55 1 0
0.55 0.95 0
0.6 0.95 0
0.55 1 0
0.6 1 0
0.6 0.95 0
0.65 0.95 0
0.6 1 0
0.65 1 0
0.65 0.95 0
0.7 0.95 0
0.65 1 0
0.7 1 0
0.7 0.95 0
0.75 0.95 0
0.7 1 0
0.75 1 0
0.75 0.95 0
0.8 0.95 0
0.75 1 0
0.8 1 0
0.8 0.95 0
0.85 0.95 0
0.8 1 0
0.85 1 0
0.85 0.95 0
0.9 0.95 0
0.85 1 0
0.9 1 0
0.9 0.95 0
0.95 0.95 0
0.9 1 0
0.95 1 0
0.95 0.95 0
1 0.95 0
0.95 1 0
1 1 0
1 0.95 0
1.05 0.95 0
1 1 0
1.05 1 0
1.05 0.95 0
1.1 0.95 0
1.05 1 0
1.1 1 0
1.1 0.95 0
1.15 0.95 0
1.1 1 0
1.15 1 0
1.15 0.95 0
1.2 0.95 0
1.15 1 0
1.2 1 0
1.2 0.95 0
1.25 0.95 0
1.2 1 0
1.25 1 0
1.25 0.95 0
1.3 0.95 0
1.25 1 0
1.3 1 0
1.3 0 0
1.325 0 0
1.3 0.025 0
1.325 0.025 0
1.325 0 0
1.35 0 0
1.325 0.025 0
1.35 0.025 0
1.3 0.025 0
1.325 0.025 0
1.3 0.05 0
1.325 0.05 0
1.325 0.025 0
1.35 0.025 0
1.325 0.05 0
1.35 0.05 0
1.35 0 0
1.375 0 0
1.35 0.025 0
1.375 0.025 0
1.375 0 0
1.4 0 0
1.375 0.025 0
1.4 0.025 0
1.35 0.025 0
1.375 0.025 0
1.35 0.05 0
1.375 0.05 0
1.375 0.025 0
1.4 0.025 0
1.375 0.05 0
1.4 0.05 0
1.4 0 0
1.425 0 0
1.4 0.025 0
1.425 0.025 0
1.425 0 0
1.45 0 0
1.425 0.025 0
1.45 0.025 0
1.4 0.025 0
1.425 0.025 0
1.4 0.05 0
1.425 0.05 0
1.425 0.025 0
1.45 0.025 0
1.425 0.05 0
1.45 0.05 0
1.45 0 0
1.475 0 0
1.45 0.025 0
1.475 0.025 0
1.475 0 0
1.5 0 0
1.475 0.025 0
1.5 0.025 0
1.45 0.025 0
1.475 0.025 0
1.45 0.05 0
1.475 0.05 0
1.475 0.025 0
1.5 0.025 0
1.475 0.05 0
1.5 0.05 0
1.5 0 0
1.525 0 0
1.5 0.025 0
1.525 0.025 0
1.525 0 0
1.55 0 0
1.525 0.025 0
1.55 0.025 0
1.5 0.025 0
1.525 0.025 0
1.5 0.05 0
1.525 0.05 0
1.525 0.025 0
1.55 0.025 0
1.525 0.05 0
1.55 0.05 0
1.55 0 0
1.575 0 0
1.55 0.025 0
1.575 0.025 0
1.575 0 0
1.6 0 0
1.575 0.025 0
1.6 0.025 0
1.55 0.025 0
1.575 0.025 0
1.55 0.05 0
1.575 0.05 0
1.575 0.025 0
1.6 0.025 0
1.575 0.05 0
1.6 0.05 0
1.6 0 0
1.625 0 0
1.6 0.025 0
1.625 0.025 0
1.625 0 0
1.65 0 0
1.625 0.025 0
1.65 0.025 0
1.6 0.025 0
1.625 0.025 0
1.6 0.05 0
1.625 0.05 0
1.625 0.025 0
1.65 0.025 0
1.625 0.05 0
1.65 0.05 0
1.65 0 0
1.675 0 0
1.65 0.025 0
1.675 0.025 0
1.675 0 0
1.7 0 0
1.675 0.025 0
1.7 0.025 0
1.65 0.025 0
1.675 0.025 0
1.65 0.05 0
1.675 0.05 0
1.675 0.025 0
1.7 0.025 0
1.675 0.05 0
1.7 0.05 0
1.7 0 0
1.725 0 0
1.7 0.025 0
1.725 0.025 0
1.725 0 0
1.75 0 0
1.725 0.025 0
1.75 0.025 0
1.7 0.025 0
1.725 0.025 0
1.7 0.05 0
1.725 0.05 0
1.725 0.025 0
1.75 0.025 0
1.725 0.05 0
1.75 0.05 0
1.75 0 0
1.775 0 0
1.75 0.025 0
1.775 0.025 0
1.775 0 0
1.8 0 0
1.775 0.025 0
1.8 0.025 0
1.75 0.025 0
1.775 0.025 0
1.75 0.05 0
1.775 0.05 0
1.775 0.025 0
1.8 0.025 0
1.775 0.05 0
1.8 0.05 0
1.8 0 0
1.825 0 0
1.8 0.025 0
1.825 0.025 0
1.825 0 0
1.85 0 0
1.825 0.025 0
1.85 0.025 0
1.8 0.025 0
1.825 0.025 0
1.8 0.05 0
1.825 0.05 0
1.825 0.025 0
1.85 0.025 0
1.825 0.05 0
1.85 0.05 0
1.85 0 0
1.875 0 0
1.85 0.025 0
1.875 0.025 0
1.875 0 0
1.9 0 0
1.875 0.025 0
1.9 0.025 0
1.85 0.025 0
1.875 0.025 0
1.85 0.05 0
1.875 0.05 0
1.875 0.025 0
1.9 0.025 0
1.875 0.05 0
1.9 0.05 0
1.9 0 0
1.925 0 0
1.9 0.025 0
1.925 0.025 0
1.925 0 0
1.95 0 0
1.925 0.025 0
1.95 0.025 0
1.9 0.025 0
1.925 0.025 0
1.9 0.05 0
1.925 0.05 0
1.925 0.025 0
1.95 0.025 0
1.925 0.05 0
1.95 0.05 0
1.95 0 0
1.975 0 0
1.95 0.025 0
1.975 0.025 0
1.975 0 0
2 0 0
1.975 0.025 0
2 0.025 0
1.95 0.025 0
1.975 0.025 0
1.95 0.05 0
1.975 0.05 0
1.975 0.025 0
2 0.025 0
1.975 0.05 0
2 0.05 0
0 0.05 0
0.025 0.05 0
0 0.075 0
0.025 0.075 0
0.025 0.05 0
0.05 0.05 0
0.025 0.075 0
0.05 0.075 0
0 0.075 0
0.025 0.075 0
0 0.1 0
0.025 0.1 0
0.025 0.075 0
0.05 0.075 0
0.025 0.1 0
0.05 0.1 0
0.05 0.05 0
0.075 0.05 0
0.05 0.075 0
0.075 0.075 0
0.075 0.05 0
0.1 0.05 0
0.075 0.075 0
0.1 0.075 0
0.05 0.075 0
0.075 0.075 0
0.05 0.1 0
0.075 0.1 0
0.075 0.075 0
0.1 0.075 0
0.075 0.1 0
0.1 0.1 0
0.3 0.05 0
0.325 0.05 0
0.3 0.075 0
0.325 0.075 0
0.325 0.05 0
0.35 0.05 0
0.325 0.075 0
0.35 0.075 0
0.3 0.075 0
0.325 0.075 0
0.3 0.1 0
0.325 0.1 0
0.325 0.075 0
0.35 0.075 0
0.325 0.1 0
0.35 0.1 0
0.35 0.05 0
0.375 0.05 0
0.35 0.075 0
0.375 0.075 0
0.375 0.05 0
0.4 0.05 0
0.375 0.075 0
0.4 0.075 0
0.35 0.075 0
0.375 0.075 0
0.35 0.1 0
0.375 0.1 0
0.375 0.075 0
0.4 0.075 0
0.375 0.1 0
0.4 0.1 0
0.4 0.05 0
0.425 0.05 0
0.4 0.075 0
0.425 0.075 0
0.425 0.05 0
0.45 0.05 0
0.425 0.075 0
0.45 0.075 0
0.4 0.075 0
0.425 0.075 0
0.4 0.1 0
0.425 0.1 0
0.425 0.075 0
0.45 0.075 0
0.425 0.1 0
0.45 0.1 0
0.45 0.05 0
0.475 0.05 0
0.45 0.075 0
0.475 0.075 0
0.475 0.05 0
0.5 0.05 0
0.475 0.075 0
0.5 0.075 0
0.45 0.075 0
0.475 0.075 0
0.45 0.1 0
0.475 0.1 0
0.475 0.075 0
0.5 0.075 0
0.475 0.1 0
0.5 0.1 0
0.5 0.05 0
0.525 0.05 0
0.5 0.075 0
0.525 0.075 0
0.525 0.05 0
0.55 0.05 0
0.525 0.075 0
0.55 0.075 0
0.5 0.075 0
0.525 0.075 0
0.5 0.1 0
0.525 0.1 0
0.525 0.075 0
0.55 0.075 0
0.525 0.1 0
0.55 0.1 0
0.55 0.05 0
0.575 0.05 0
0.55 0.075 0
0.575 0.075 0
0.575 0.05 0
0.6 0.05 0
0.575 0.075 0
0.6 0.075 0
0.55 0.075 0
0.575 0.075 0
0.55 0.1 0
0.575 0.1 0
0.575 0.075 0
0.6 0.075 0
0.575 0.1 0
0.6 0.1 0
0.6 0.05 0
0.625 0.05 0
0.6 0.075 0
0.625 0.075 0
0.625 0.05 0
0.65 0.05 0
0.625 0.075 0
0.65 0.075 0
0.6 0.075 0
0.625 0.075 0
0.6 0.1 0
0.625 0.1 0
0.625 0.075 0
0.65 0.075 0
0.625 0.1 0
0.65 0.1 0
0.65 0.05 0
0.675 0.05 0
0.65 0.075 0
0.675 0.075 0
0.675 0.05 0
0.7 0.05 0
0.675 0.075 0
0.7 0.075 0
0.65 0.075 0
0.675 0.075 0
0.65 0.1 0
0.675 0.1 0
0.675 0.075 0
0.7 0.075 0
0.675 0.1 0
0.7 0.1 0
0.7 0.05 0
0.725 0.05 0
0.7 0.075 0
0.725 0.075 0
0.725 0.05 0
0.75 0.05 0
0.725 0.075 0
0.75 0.075 0
0.7 0.075 0
0.725 0.075 0
0.7 0.1 0
0.725 0.1 0
0.725 0.075 0
0.75 0.075 0
0.725 0.1 0
0.75 0.1 0
0.75 0.05 0
0.775 0.05 0
0.75 0.075 0
0.775 0.075 0
0.775 0.05 0
0.8 0.05 0
0.775 0.075 0
0.8 0.075 0
0.75 0.075 0
0.775 0.075 0
0.75 0.1 0
0.775 0.1 0
0.775 0.075 0
0.8 0.075 0
0.775 0.1 0
0.8 0.1 0
0.8 0.05 0
0.825 0.05 0
0.8 0.075 0
0.825 0.075 0
0.825 0.05 0
0.85 0.05 0
0.825 0.075 0
0.85 0.075 0
0.8 0.075 0
0.825 0.075 0
0.8 0.1 0
0.825 0.1 0
0.825 0.075 0
0.85 0.075 0
0.825 0.1 0
0.85 0.1 0
0.85 0.05 0
0.875 0.05 0
0.85 0.075 0
0.875 0.075 0
0.875 0.05 0
0.9 0.05 0
0.875 0.075 0
0.9 0.075 0
0.85 0.075 0
0.875 0.075 0
0.85 0.1 0
0.875 0.1 0
0.875 0.075 0
0.9 0.075 0
0.875 0.1 0
0.9 0.1 0
0.9 0.05 0
0.925 0.05 0
0.9 0.075 0
0.925 0.075 0
0.925 0.05 0
0.95 0.05 0
0.925 0.075 0
0.95 0.075 0
0.9 0.075 0
0.925 0.075 0
0.9 0.1 0
0.925 0.1 0
0.925 0.075 0
0.95 0.075 0
0.925 0.1 0
0.95 0.1 0
0.95 0.05 0
0.975 0.05 0
0.95 0.075 0
0.975 0.075 0
0.975 0.05 0
1 0.05 0
0.975 0.075 0
1 0.075 0
0.95 0.075 0
0.975 0.075 0
0.95 0.1 0
0.975 0.1 0
0.975 0.075 0
1 0.075 0
0.975 0.1 0
1 0.1 0
1 0.05 0
1.025 0.05 0
1 0.075 0
1.025 0.075 0
1.025 0.05 0
1.05 0.05 0
1.025 0.075 0
1.05 0.075 0
1 0.075 0
1.025 0.075 0
1 0.1 0
1.025 0.1 0
1.025 0.075 0
1.05 0.075 0
1.025 0.1 0
1.05 0.1 0
1.05 0.05 0
1.075 0.05 0
1.05 0.075 0
1.075 0.075 0
1.075 0.05 0
1.1 0.05 0
1.075 0.075 0
1.1 0.075 0
1.05 0.075 0
1.075 0.075 0
1.05 0.1 0
1.075 0.1 0
1.075 0.075 0
1.1 0.075 0
1.075 0.1 0
1.1 0.1 0
1.1 0.05 0
1.125 0.05 0
1.1 0.075 0
1.125 0.075 0
1.125 0.05 0
1.15 0.05 0
1.125 0.075 0
1.15 0.075 0
1.1 0.075 0
1.125 0.075 0
1.1 0.1 0
1.125 0.1 0
1.125 0.075 0
1.15 0.075 0
1.125 0.1 0
1.15 0.1 0
1.15 0.05 0
1.175 0.05 0
1.15 0.075 0
1.175 0.075 0
1.175 0.05 0
1.2 0.05 0
1.175 0.075 0
1.2 0.075 0
1.15 0.075 0
1.175 0.075 0
1.15 0.1 0
1.175 0.1 0
1.175 0.075 0
1.2 0.075 0
1.175 0.1 0
1.2 0.1 0
1.2 0.05 0
1.225 0.05 0
1.2 0.075 0
1.225 0.075 0
1.225 0.05 0
1.25 0.05 0
1.225 0.075 0
1.25 0.075 0
1.2 0.075 0
1.225 0.075 0
1.2 0.1 0
1.225 0.1 0
1.225 0.075 0
[...]
POINT_DATA 11912
SCALARS x_displacement double 1
LOOKUP_TABLE default
0 -1.59654 0 -0.946175 -1.59654 -2.77207 -0.946175 -1.91953 -2.77207 -3.7286 -1.91953 -2.74985 -3.7286 -4.53431 -2.74985 -3.46958 -4.53431 -5.24814 -3.46958 -4.11088 -5.24814 -5.9341 -4.11088 -4.69359 -5.9341 -6.63719 -4.69359 -5.26389 -6.63719 -7.36374 -5.26389 -5.8519 -7.36374 -8.08361 -5.8519 -6.46605 -8.08361 -8.77848 -6.46605 -7.09893 -8.77848 -9.44859 -7.09893 -7.74073 -9.44859 -10.0966 -7.74073 -8.38713 -10.0966 -10.7263 -8.38713 -9.03565 -10.7263 -11.341 -9.03565 -9.68367 -11.341 -11.9442 -9.68367 -10.3287 -11.9442 -12.5402 -10.3287 -10.9678 -12.5402 -13.1341 -10.9678 -11.598 -13.1341 -13.7314 -11.598 -12.2162 -13.7314 -14.3375 -12.2162 -12.8199 -14.3375 -14.9575 -12.8199 -13.4073 -14.9575 -15.5978 -13.4073 -13.9762 -15.5978 -16.2654 -13.9762 -14.5235 -16.2654 -16.9559 -14.5235 -15.0424 -16.9559 -17.636 -15.0424 -15.5218 -17.636 -18.2337 -15.5218 -15.9532 -18.2337 -18.6583 -15.9532 -16.3243 -1.91953 -2.74985 -1.39519 -2.0075 -2.74985 -3.46958 -2.0075 -2.58688 -3.46958 -4.11088 -2.58688 -3.10738 -4.11088 -4.69359 -3.10738 -3.53864 -2.58688 -3.10738 -1.85838 -2.25987 -3.10738 -3.53864 -2.25987 -2.6139 -1.17279 -1.28296 -0.00496178 -0.00518082 -1.28296 -1.33242 -0.00518082 -0.00547199 -1.34165 -1.35555 -0.00139704 -0.00064137 -2.21162 -2.44281 1.24471e-05 -1.97335e-05 -2.44281 -2.46908 -1.97335e-05 -3.75706e-05 -0.0755663 -0.0518914 0.517835 0.665391 -0.00496178 -0.00518082 1.16212 1.27222 -0.00518082 -0.00547199 1.27222 1.32145 1.24471e-05 -1.97335e-05 2.21156 2.44272 -1.97335e-05 -3.75706e-05 2.44272 2.46897 1.84519 2.24675 2.5804 3.1007 2.24675 2.60072 3.1007 3.53176 1.38953 2.00129 1.92006 2.75042 2.00129 2.5804 2.75042 3.46997 2.5804 3.1007 3.46997 4.11086 3.1007 3.53176 4.11086 4.69303 0 0.946379 0 1.6014 0.946379 1.92006 1.6014 2.77942 1.92006 2.75042 2.77942 3.73674 2.75042 3.46997 3.73674 4.54222 3.46997 4.11086 4.54222 5.25523 4.11086 4.69303 5.25523 5.94002 4.69303 5.26274 5.94002 6.64159 5.26274 5.8503 6.64159 7.36614 5.8503 6.46414 7.36614 8.08355 6.46414 7.09685 8.08355 8.7758 7.09685 7.73857 8.7758 9.44353 7.73857 8.3849 9.44353 10.0896 8.3849 9.03327 10.0896 10.7179 9.03327 9.68109 10.7179 11.3317 9.68109 10.3258 11.3317 11.9345 10.3258 10.9647 11.9345 12.5306 10.9647 11.5946 12.5306 13.1251 11.5946 12.2126 13.1251 13.7231 12.2126 12.8162 13.7231 14.3302 12.8162 13.4037 14.3302 14.9512 13.4037 13.9728 14.9512 15.5926 13.9728 14.5205 15.5926 16.2613 14.5205 15.0397 16.2613 16.9528 15.0397 15.5192 16.9528 17.6336 15.5192 15.9507 17.6336 18.2315 15.9507 16.3218 18.2315 18.6562 -18.6583 -18.8158 -17.4913 -17.6103 -18.8158 -18.923 -17.6103 -17.7384 -17.4913 -17.6103 -16.3243 -16.4935 -17.6103 -17.7384 -16.4935 -16.6504 -18.923 -19.0215 -17.7384 -17.8776 -19.0215 -19.0612 -17.8776 -18.0165 -17.7384 -17.8776 -16.6504 -16.8038 -17.8776 -18.0165 -16.8038 -16.9412 -19.0612 -18.9894 -18.0165 -18.1843 -18.9894 -19.4764 -18.1843 -18.3496 -18.0165 -18.1843 -16.9412 -17.0587 -18.1843 -18.3496 -17.0587 -17.1301 -19.4764 -19.7825 -18.3496 -18.4613 -19.7825 -19.9082 -18.4613 -18.5808 -18.3496 -18.4613 -17.1301 -17.1321 -18.4613 -18.5808 -17.1321 -17.277 -19.9082 -20.1169 -18.5808 -18.3931 -20.1169 -20.2332 -18.3931 -18.8258 -18.5808 -18.3931 -17.277 -17.2953 -18.3931 -18.8258 -17.2953 -17.5818 -20.2332 -20.4401 -18.8258 -19.0829 -20.4401 -20.6303 -19.0829 -19.288 -18.8258 -19.0829 -17.5818 -17.8303 -19.0829 -19.288 -17.8303 -18.0273 -20.6303 -20.7926 -19.288 -19.4534 -20.7926 -20.9231 -19.4534 -19.5885 -19.288 -19.4534 -18.0273 -18.1725 -19.4534 -19.5885 -18.1725 -18.3035 -20.9231 -21.027 -19.5885 -19.703 -21.027 -21.1094 -19.703 -19.799 -19.5885 -19.703 -18.3035 -18.4239 -19.703 -19.799 -18.4239 -18.5289 -21.1094 -21.1727 -19.799 -19.8773 -21.1727 -21.2185 -19.8773 -19.9395 -19.799 -19.8773 -18.5289 -18.6183 -19.8773 -19.9395 -18.6183 -18.6929 -21.2185 -21.249 -19.9395 -19.9875 -21.249 -21.2665 -19.9875 -20.0232 -19.9395 -19.9875 -18.6929 -18.7548 -19.9875 -20.0232 -18.7548 -18.8047 -21.2665 -21.2733 -20.0232 -20.048 -21.2733 -21.2718 -20.048 -20.0638 -20.0232 -20.048 -18.8047 -18.8435 -20.048 -20.0638 -18.8435 -18.8723 -21.2718 -21.2644 -20.0638 -20.0724 -21.2644 -21.2537 -20.0724 -20.0757 -20.0638 -20.0724 -18.8723 -18.8924 -20.0724 -20.0757 -18.8924 -18.9051 -21.2537 -21.2427 -20.0757 -20.0757 -21.2427 -21.2341 -20.0757 -20.0744 -20.0757 -20.0757 -18.9051 -18.9121 -20.0757 -20.0744 -18.9121 -18.9152 -21.2341 -21.2297 -20.0744 -20.0733 -21.2297 -21.2287 -20.0733 -20.0733 -20.0744 -20.0733 -18.9152 -18.9165 -20.0733 -20.0733 -18.9165 -18.918 0 -0.473088 0 -0.396052 -0.473088 -0.946175 -0.396052 -0.83118 0 -0.396052 0 -0.370791 -0.396052 -0.83118 -0.370791 -0.79569 -0.946175 -1.43285 -0.83118 -1.24544 -1.43285 -1.91953 -1.24544 -1.65736 -0.83118 -1.24544 -0.79569 -1.11546 -1.24544 -1.65736 -1.11546 -1.39519 -4.69359 -4.97874 -4.11611 -4.33903 -4.97874 -5.26389 -4.33903 -4.56643 -4.11611 -4.33903 -3.53864 -3.72973 -4.33903 -4.56643 -3.72973 -3.89167 -5.26389 -5.55789 -4.56643 -4.80925 -5.55789 -5.8519 -4.80925 -5.07157 -4.56643 -4.80925 -3.89167 -4.05358 -4.80925 -5.07157 -4.05358 -4.24336 -5.8519 -6.15897 -5.07157 -5.35353 -6.15897 -6.46605 -5.35353 -5.64809 -5.07157 -5.35353 -4.24336 -4.51028 -5.35353 -5.64809 -4.51028 -4.80927 -6.46605 -6.78249 -5.64809 -5.94961 -6.78249 -7.09893 -5.94961 -6.25774 -5.64809 -5.94961 -4.80927 -5.10566 -5.94961 -6.25774 -5.10566 -5.40501 -7.09893 -7.41983 -6.25774 -6.56969 -7.41983 -7.74073 -6.56969 -6.8873 -6.25774 -6.56969 -5.40501 -5.71257 -6.56969 -6.8873 -5.71257 -6.02744 -7.74073 -8.06393 -6.8873 -7.20869 -8.06393 -8.38713 -7.20869 -7.53432 -6.8873 -7.20869 -6.02744 -6.35074 -7.20869 -7.53432 -6.35074 -6.67976 -8.38713 -8.71139 -7.53432 -7.86228 -8.71139 -9.03565 -7.86228 -8.19299 -7.53432 -7.86228 -6.67976 -7.01309 -7.86228 -8.19299 -7.01309 -7.35094 -9.03565 -9.35966 -8.19299 -8.52508 -9.35966 -9.68367 -8.52508 -8.85864 -8.19299 -8.52508 -7.35094 -7.6927 -8.52508 -8.85864 -7.6927 -8.03768 -9.68367 -10.0062 -8.85864 -9.19234 -10.0062 -10.3287 -9.19234 -9.52579 -8.85864 -9.19234 -8.03768 -8.38384 -9.19234 -9.52579 -8.38384 -8.73101 -10.3287 -10.6483 -9.52579 -9.85781 -10.6483 -10.9678 -9.85781 -10.1876 -9.52579 -9.85781 -8.73101 -9.0761 -9.85781 -10.1876 -9.0761 -9.41959 -10.9678 -11.2829 -10.1876 -10.5144 -11.2829 -11.598 -10.5144 -10.837 -10.1876 -10.5144 -9.41959 -9.75799 -10.5144 -10.837 -9.75799 -10.092 -11.598 -11.9071 -10.837 -11.1549 -11.9071 -12.2162 -11.1549 -11.4665 -10.837 -11.1549 -10.092 -10.4179 -11.1549 -11.4665 -10.4179 -10.7362 -12.2162 -12.518 -11.4665 -11.7718 -12.518 -12.8199 -11.7718 -12.0691 -11.4665 -11.7718 -10.7362 -11.0432 -11.7718 -12.0691 -11.0432 -11.34 -12.8199 -13.1136 -12.0691 -12.359 -13.1136 -13.4073 -12.359 -12.6398 -12.0691 -12.359 -11.34 -11.6226 -12.359 -12.6398 -11.6226 -11.8944 -13.4073 -13.6917 -12.6398 -12.9129 -13.6917 -13.9762 -12.9129 -13.1756 -12.6398 -12.9129 -11.8944 -12.1547 -12.9129 -13.1756 -12.1547 -12.4038 -13.9762 -14.2498 -13.1756 -13.4299 -14.2498 -14.5235 -13.4299 -13.6716 -13.1756 -13.4299 -12.4038 -12.6402 -13.4299 -13.6716 -12.6402 -12.8602 -14.5235 -14.7829 -13.6716 -13.9027 -14.7829 -15.0424 -13.9027 -14.1186 -13.6716 -13.9027 -12.8602 -13.0574 -13.9027 -14.1186 -13.0574 -13.2345 -15.0424 -15.2821 -14.1186 -14.3229 -15.2821 -15.5218 -14.3229 -14.514 -14.1186 -14.3229 -13.2345 -13.3906 -14.3229 -14.514 -13.3906 -13.5366 -15.5218 -15.7375 -14.514 -14.6999 -15.7375 -15.9532 -14.6999 -14.879 -14.514 -14.6999 -13.5366 -13.6773 -14.6999 -14.879 -13.6773 -13.8181 -15.9532 -16.1388 -14.879 -15.0551 -16.1388 -16.3243 -15.0551 -15.2236 -14.879 -15.0551 -13.8181 -13.9621 -15.0551 -15.2236 -13.9621 -14.107 -16.3243 -16.4935 -15.2236 -15.3793 -16.4935 -16.6504 -15.3793 -15.526 -15.2236 -15.3793 -14.107 -14.2459 -15.3793 -15.526 -14.2459 -14.375 -16.6504 -16.8038 -15.526 -15.6635 -16.8038 -16.9412 -15.6635 -15.7857 -15.526 -15.6635 -14.375 -14.5 -15.6635 -15.7857 -14.5 -14.6237 -16.9412 -17.0587 -15.7857 -15.8823 -17.0587 -17.1301 -15.8823 -15.9675 -15.7857 -15.8823 -14.6237 -14.7422 -15.8823 -15.9675 -14.7422 -14.8812 -17.1301 -17.1321 -15.9675 -16.1301 -17.1321 -17.277 -16.1301 -16.429 -15.9675 -16.1301 -14.8812 -15.0624 -16.1301 -16.429 -15.0624 -15.2257 -17.277 -17.2953 -16.429 -16.561 -17.2953 -17.5818 -16.561 -16.6153 -16.429 -16.561 -15.2257 -15.3361 -16.561 -16.6153 -15.3361 -15.3801 -17.5818 -17.8303 -16.6153 -16.7147 -17.8303 -18.0273 -16.7147 -16.8056 -16.6153 -16.7147 -15.3801 -15.3299 -16.7147 -16.8056 -15.3299 -15.5674 -18.0273 -18.1725 -16.8056 -16.928 -18.1725 -18.3035 -16.928 -17.0616 -16.8056 -16.928 -15.5674 -15.7434 -16.928 -17.0616 -15.7434 -15.8549 -18.3035 -18.4239 -17.0616 -17.1828 -18.4239 -18.5289 -17.1828 -17.2946 -17.0616 -17.1828 -15.8549 -15.9759 -17.1828 -17.2946 -15.9759 -16.081 -18.5289 -18.6183 -17.2946 -17.3907 -18.6183 -18.6929 -17.3907 -17.4762 -17.2946 -17.3907 -16.081 -16.1893 -17.3907 -17.4762 -16.1893 -16.2884 -18.6929 -18.7548 -17.4762 -17.5502 -18.7548 -18.8047 -17.5502 -17.6118 -17.4762 -17.5502 -16.2884 -16.3744 -17.5502 -17.6118 -16.3744 -16.4457 -18.8047 -18.8435 -17.6118 -17.6616 -18.8435 -18.8723 -17.6616 -17.7002 -17.6118 -17.6616 -16.4457 -16.5039 -17.6616 -17.7002 -16.5039 -16.5505 -18.8723 -18.8924 -17.7002 -17.7287 -18.8924 -18.9051 -17.7287 -17.7479 -17.7002 -17.7287 -16.5505 -16.5855 -17.7287 -17.7479 -16.5855 -16.6091 -18.9051 -18.9121 -17.7479 -17.7591 -18.9121 -18.9152 -17.7591 -17.7646 -17.7479 -17.7591 -16.6091 -16.6227 -17.7591 -17.7646 -16.6227 -16.6288 -18.9152 -18.9165 -17.7646 -17.7669 -18.9165 -18.918 -17.7669 -17.7692 -17.7646 -17.7669 -16.6288 -16.6308 -17.7669 -17.7692 -16.6308 -16.6329 0 -0.370791 0 -0.435588 -0.370791 -0.79569 -0.435588 -0.765583 0 -0.435588 0 -0.452069 -0.435588 -0.765583 -0.452069 -0.56179 -0.79569 -1.11546 -0.765583 -0.943041 -1.11546 -1.39519 -0.943041 -1.1343 -0.765583 -0.943041 -0.56179 -0.655531 -0.943041 -1.1343 -0.655531 -0.815657 -1.39519 -1.70134 -1.1343 -1.38767 -1.70134 -2.0075 -1.38767 -1.67877 -1.1343 -1.38767 -0.815657 -1.10006 -1.38767 -1.67877 -1.10006 -1.4309 -2.0075 -2.29719 -1.67877 -1.95745 -2.29719 -2.58688 -1.95745 -2.22263 -1.67877 -1.95745 -1.4309 -1.6634 -1.95745 -2.22263 -1.6634 -1.85838 -3.53864 -3.72973 -3.07627 -3.21416 -3.72973 -3.89167 -3.21416 -3.34341 -3.07627 -3.21416 -2.6139 -2.78049 -3.21416 -3.34341 -2.78049 -2.9264 -3.89167 -4.05358 -3.34341 -3.44884 -4.05358 -4.24336 -3.44884 -3.54683 -3.34341 -3.44884 -2.9264 -3.06102 -3.44884 -3.54683 -3.06102 -3.20469 -4.24336 -4.51028 -3.54683 -3.70219 -4.51028 -4.80927 -3.70219 -3.97353 -3.54683 -3.70219 -3.20469 -3.37676 -3.70219 -3.97353 -3.37676 -3.5352 -4.80927 -5.10566 -3.97353 -4.23457 -5.10566 -5.40501 -4.23457 -4.52744 -3.97353 -4.23457 -3.5352 -3.68142 -4.23457 -4.52744 -3.68142 -3.81342 -5.40501 -5.71257 -4.52744 -4.83796 -5.71257 -6.02744 -4.83796 -5.16013 -4.52744 -4.83796 -3.81342 -3.9373 -4.83796 -5.16013 -3.9373 -4.25339 -6.02744 -6.35074 -5.16013 -5.48915 -6.35074 -6.67976 -5.48915 -5.82616 -5.16013 -5.48915 -4.25339 -4.60014 -5.48915 -5.82616 -4.60014 -4.95089 -6.67976 -7.01309 -5.82616 -6.16583 -7.01309 -7.35094 -6.16583 -6.51269 -5.82616 -6.16583 -4.95089 -5.34232 -6.16583 -6.51269 -5.34232 -5.8218 -7.35094 -7.6927 -6.51269 -6.86894 -7.6927 -8.03768 -6.86894 -7.22607 -6.51269 -6.86894 -5.8218 -6.27142 -6.86894 -7.22607 -6.27142 -6.65434 -8.03768 -8.38384 -7.22607 -7.59068 -8.38384 -8.73101 -7.59068 -7.9517 -7.22607 -7.59068 -6.65434 -7.01319 -7.59068 -7.9517 -7.01319 -7.37684 -8.73101 -9.0761 -7.9517 -8.31688 -9.0761 -9.41959 -8.31688 -8.67337 -7.9517 -8.31688 -7.37684 -7.72426 -8.31688 -8.67337 -7.72426 -8.08023 -9.41959 -9.75799 -8.67337 -9.03034 -9.75799 -10.092 -9.03034 -9.37417 -8.67337 -9.03034 -8.08023 -8.41934 -9.03034 -9.37417 -8.41934 -8.76062 -10.092 -10.4179 -9.37417 -9.71378 -10.4179 -10.7362 -9.71378 -10.0361 -9.37417 -9.71378 -8.76062 -9.0833 -9.71378 -10.0361 -9.0833 -9.40156 -10.7362 -11.0432 -10.0361 -10.3492 -11.0432 -11.34 -10.3492 -10.6434 -10.0361 -10.3492 -9.40156 -9.70071 -10.3492 -10.6434 -9.70071 -9.99299 -11.34 -11.6226 -10.6434 -10.9223 -11.6226 -11.8944 -10.9223 -11.1848 -10.6434 -10.9223 -9.99299 -10.2677 -10.9223 -11.1848 -10.2677 -10.5349 -11.8944 -12.1547 -11.1848 -11.4382 -12.1547 -12.4038 -11.4382 -11.6772 -11.1848 -11.4382 -10.5349 -10.7936 -11.4382 -11.6772 -10.7936 -11.0263 -12.4038 -12.6402 -11.6772 -11.901 -12.6402 -12.8602 -11.901 -12.0917 -11.6772 -11.901 -11.0263 -11.207 -11.901 -12.0917 -11.207 -11.3434 -12.8602 -13.0574 -12.0917 -12.2472 -13.0574 -13.2345 -12.2472 -12.3746 -12.0917 -12.2472 -11.3434 -11.4458 -12.2472 -12.3746 -11.4458 -11.524 -13.2345 -13.3906 -12.3746 -12.4813 -13.3906 -13.5366 -12.4813 -12.576 -12.3746 -12.4813 -11.524 -11.5808 -12.4813 -12.576 -11.5808 -11.6215 -13.5366 -13.6773 -12.576 -12.6625 -13.6773 -13.8181 -12.6625 -12.7465 -12.576 -12.6625 -11.6215 -11.6506 -12.6625 -12.7465 -11.6506 -11.6746 -13.8181 -13.9621 -12.7465 -12.8392 -13.9621 -14.107 -12.8392 -12.9453 -12.7465 -12.8392 -11.6746 -11.7009 -12.8392 -12.9453 -11.7009 -11.7492 -14.107 -14.2459 -12.9453 -13.0679 -14.2459 -14.375 -13.0679 -13.2028 -12.9453 -13.0679 -11.7492 -11.8638 -13.0679 -13.2028 -11.8638 -12.0295 -14.375 -14.5 -13.2028 -13.3376 -14.5 -14.6237 -13.3376 -13.4732 -13.2028 -13.3376 -12.0295 -12.1743 -13.3376 -13.4732 -12.1743 -12.3078 -14.6237 -14.7422 -13.4732 -13.61 -14.7422 -14.8812 -13.61 -13.7499 -13.4732 -13.61 -12.3078 -12.4447 -13.61 -13.7499 -12.4447 -12.5782 -14.8812 -15.0624 -13.7499 -13.8878 -15.0624 -15.2257 -13.8878 -14.0156 -13.7499 -13.8878 -12.5782 -12.7104 -13.8878 -14.0156 -12.7104 -12.8494 -15.2257 -15.3361 -14.0156 -14.1297 -15.3361 -15.3801 -14.1297 -14.2282 -14.0156 -14.1297 -12.8494 -12.9876 -14.1297 -14.2282 -12.9876 -13.1198 -15.3801 -15.3299 -14.2282 -14.3549 -15.3299 -15.5674 -14.3549 -14.5533 -14.2282 -14.3549 -13.1198 -13.2545 -14.3549 -14.5533 -13.2545 -13.3539 -15.5674 -15.7434 -14.5533 -14.6606 -15.7434 -15.8549 -14.6606 -14.7449 -14.5533 -14.6606 -13.3539 -13.4202 -14.6606 -14.7449 -13.4202 -13.5279 -15.8549 -15.9759 -14.7449 -14.7014 -15.9759 -16.081 -14.7014 -14.8801 -14.7449 -14.7014 -13.5279 -13.5081 -14.7014 -14.8801 -13.5081 -13.7312 -16.081 -16.1893 -14.8801 -15.0156 -16.1893 -16.2884 -15.0156 -15.1352 -14.8801 -15.0156 -13.7312 -13.9002 -15.0156 -15.1352 -13.9002 -14.0301 -16.2884 -16.3744 -15.1352 -15.2304 -16.3744 -16.4457 -15.2304 -15.3065 -15.1352 -15.2304 -14.0301 -14.1139 -15.2304 -15.3065 -14.1139 -14.1923 -16.4457 -16.5039 -15.3065 -15.3718 -16.5039 -16.5505 -15.3718 -15.426 -15.3065 -15.3718 -14.1923 -14.2669 -15.3718 -15.426 -14.2669 -14.3296 -16.5505 -16.5855 -15.426 -15.4667 -16.5855 -16.6091 -15.4667 -15.4933 -15.426 -15.4667 -14.3296 -14.3755 -15.4667 -15.4933 -14.3755 -14.4039 -16.6091 -16.6227 -15.4933 -15.5075 -16.6227 -16.6288 -15.5075 -15.5127 -15.4933 -15.5075 -14.4039 -14.4172 -15.5075 -15.5127 -14.4172 -14.42 -16.6288 -16.6308 -15.5127 -15.5131 -16.6308 -16.6329 -15.5131 -15.5141 -15.5127 -15.5131 -14.42 -14.4177 -15.5131 -15.5141 -14.4177 -14.4162 0 -0.452069 0 -0.107688 -0.452069 -0.56179 -0.107688 -0.257113 0 -0.107688 0 -0.189568 -0.107688 -0.257113 -0.189568 -0.396641 -0.56179 -0.655531 -0.257113 -0.332002 -0.655531 -0.815657 -0.332002 -0.506819 -0.257113 -0.332002 -0.396641 -0.689701 -0.332002 -0.506819 -0.689701 -0.720218 -0.815657 -1.10006 -0.506819 -0.977106 -1.10006 -1.4309 -0.977106 -1.22311 -0.506819 -0.977106 -0.720218 -0.885992 -0.977106 -1.22311 -0.885992 -0.897031 -1.4309 -1.6634 -1.22311 -1.3547 -1.6634 -1.85838 -1.3547 -1.49762 -1.22311 -1.3547 -0.897031 -0.975131 -1.3547 -1.49762 -0.975131 -1.11629 -1.85838 -2.05912 -1.49762 -1.67795 -2.05912 -2.25987 -1.67795 -1.87138 -1.49762 -1.67795 -1.11629 -1.31676 -1.67795 -1.87138 -1.31676 -1.5344 -2.25987 -2.43689 -1.87138 -2.05669 -2.43689 -2.6139 -2.05669 -2.22919 -1.87138 -2.05669 -1.5344 -1.71319 -2.05669 -2.22919 -1.71319 -1.86981 -2.6139 -2.78049 -2.22919 -2.3934 -2.78049 -2.9264 -2.3934 -2.55308 -2.22919 -2.3934 -1.86981 -2.03044 -2.3934 -2.55308 -2.03044 -2.19382 -2.9264 -3.06102 -2.55308 -2.71126 -3.06102 -3.20469 -2.71126 -2.87083 -2.55308 -2.71126 -2.19382 -2.35901 -2.71126 -2.87083 -2.35901 -2.52224 -3.20469 -3.37676 -2.87083 -3.02113 -3.37676 -3.5352 -3.02113 -3.16484 -2.87083 -3.02113 -2.52224 -2.68095 -3.02113 -3.16484 -2.68095 -2.85053 -3.5352 -3.68142 -3.16484 -3.32219 -3.68142 -3.81342 -3.32219 -3.49633 -3.16484 -3.32219 -2.85053 -3.03745 -3.32219 -3.49633 -3.03745 -3.22764 -3.81342 -3.9373 -3.49633 -3.71448 -3.9373 -4.25339 -3.71448 -3.9618 -3.49633 -3.71448 -3.22764 -3.41468 -3.71448 -3.9618 -3.41468 -3.57683 -4.25339 -4.60014 -3.9618 -4.11842 -4.60014 -4.95089 -4.11842 -4.19382 -3.9618 -4.11842 -3.57683 -3.72538 -4.11842 -4.19382 -3.72538 -3.81754 -4.95089 -5.34232 -4.19382 -4.40671 -5.34232 -5.8218 -4.40671 -4.95811 -4.19382 -4.40671 -3.81754 -3.71189 -4.40671 -4.95811 -3.71189 -3.9747 -5.8218 -6.27142 -4.95811 -5.55067 -6.27142 -6.65434 -5.55067 -6.01895 -4.95811 -5.55067 -3.9747 -4.25614 -5.55067 -6.01895 -4.25614 -4.94646 -6.65434 -7.01319 -6.01895 -6.38165 -7.01319 -7.37684 -6.38165 -6.74758 -6.01895 -6.38165 -4.94646 -5.36606 -6.38165 -6.74758 -5.36606 -5.69828 -7.37684 -7.72426 -6.74758 -7.0923 -7.72426 -8.08023 -7.0923 -7.44292 -6.74758 -7.0923 -5.69828 -6.17042 -7.0923 -7.44292 -6.17042 -6.65164 -8.08023 -8.41934 -7.44292 -7.77685 -8.41934 -8.76062 -7.77685 -8.11108 -7.44292 -7.77685 -6.65164 -7.10499 -7.77685 -8.11108 -7.10499 -7.50715 -8.76062 -9.0833 -8.11108 -8.42668 -9.0833 -9.40156 -8.42668 -8.73959 -8.11108 -8.42668 -7.50715 -7.95436 -8.42668 -8.73959 -7.95436 -8.39102 -9.40156 -9.70071 -8.73959 -9.03813 -9.70071 -9.99299 -9.03813 -9.33461 -8.73959 -9.03813 -8.39102 -8.80043 -9.03813 -9.33461 -8.80043 -9.01503 -9.99299 -10.2677 -9.33461 -9.66807 -10.2677 -10.5349 -9.66807 -9.96982 -9.33461 -9.66807 -9.01503 -9.22269 -9.66807 -9.96982 -9.22269 -9.37104 -10.5349 -10.7936 -9.96982 -10.2259 -10.7936 -11.0263 -10.2259 -10.3751 -9.96982 -10.2259 -9.37104 -9.50111 -10.2259 -10.3751 -9.50111 -9.60199 -11.0263 -11.207 -10.3751 -10.4824 -11.207 -11.3434 -10.4824 -10.5642 -10.3751 -10.4824 -9.60199 -9.67922 -10.4824 -10.5642 -9.67922 -9.73043 -11.3434 -11.4458 -10.5642 -10.6225 -11.4458 -11.524 -10.6225 -10.656 -10.5642 -10.6225 -9.73043 -9.75583 -10.6225 -10.656 -9.75583 -9.7568 -11.524 -11.5808 -10.656 -10.6692 -11.5808 -11.6215 -10.6692 -10.6661 -10.656 -10.6692 -9.7568 -9.74082 -10.6692 -10.6661 -9.74082 -9.71316 -11.6215 -11.6506 -10.6661 -10.6523 -11.6506 -11.6746 -10.6523 -10.6294 -10.6661 -10.6523 -9.71316 -9.67465 -10.6523 -10.6294 -9.67465 -9.61968 -11.6746 -11.7009 -10.6294 -10.599 -11.7009 -11.7492 -10.599 -10.5807 -10.6294 -10.599 -9.61968 -9.54202 -10.599 -10.5807 -9.54202 -9.46061 -11.7492 -11.8638 -10.5807 -10.6615 -11.8638 -12.0295 -10.6615 -10.8497 -10.5807 -10.6615 -9.46061 -9.4279 -10.6615 -10.8497 -9.4279 -9.59642 -12.0295 -12.1743 -10.8497 -10.9806 -12.1743 -12.3078 -10.9806 -11.11 -10.8497 -10.9806 -9.59642 -9.74837 -10.9806 -11.11 -9.74837 -9.91114 -12.3078 -12.4447 -11.11 -11.257 -12.4447 -12.5782 -11.257 -11.4128 -11.11 -11.257 -9.91114 -10.0912 -11.257 -11.4128 -10.0912 -10.2802 -12.5782 -12.7104 -11.4128 -11.5635 -12.7104 -12.8494 -11.5635 -11.7103 -11.4128 -11.5635 -10.2802 -10.4389 -11.5635 -11.7103 -10.4389 -10.5781 -12.8494 -12.9876 -11.7103 -11.8547 -12.9876 -13.1198 -11.8547 -11.9908 -11.7103 -11.8547 -10.5781 -10.719 -11.8547 -11.9908 -10.719 -10.8591 -13.1198 -13.2545 -11.9908 -12.1048 -13.2545 -13.3539 -12.1048 -12.21 -11.9908 -12.1048 -10.8591 -10.9924 -12.1048 -12.21 -10.9924 -11.1415 -13.3539 -13.4202 -12.21 -12.3739 -13.4202 -13.5279 -12.3739 -12.6013 -12.21 -12.3739 -11.1415 -11.3203 -12.3739 -12.6013 -11.3203 -11.4802 -13.5279 -13.5081 -12.6013 -12.7404 -13.5081 -13.7312 -12.7404 -12.7926 -12.6013 -12.7404 -11.4802 -11.5834 -12.7404 -12.7926 -11.5834 -11.6203 -13.7312 -13.9002 -12.7926 -12.8886 -13.9002 -14.0301 -12.8886 -12.9332 -12.7