# vtk DataFile Version 3.0
#This file was generated by the deal.II library on 2015/9/3 at 12: 1: 4
ASCII
DATASET UNSTRUCTURED_GRID

POINTS 11636 double
0 0 0
0.05 0 0
0 0.05 0
0.05 0.05 0
0.05 0 0
0.1 0 0
0.05 0.05 0
0.1 0.05 0
0.1 0 0
0.15 0 0
0.1 0.05 0
0.15 0.05 0
0.15 0 0
0.2 0 0
0.15 0.05 0
0.2 0.05 0
0.2 0 0
0.25 0 0
0.2 0.05 0
0.25 0.05 0
0.25 0 0
0.3 0 0
0.25 0.05 0
0.3 0.05 0
0.3 0 0
0.35 0 0
0.3 0.05 0
0.35 0.05 0
0.35 0 0
0.4 0 0
0.35 0.05 0
0.4 0.05 0
0.4 0 0
0.45 0 0
0.4 0.05 0
0.45 0.05 0
0.45 0 0
0.5 0 0
0.45 0.05 0
0.5 0.05 0
0.5 0 0
0.55 0 0
0.5 0.05 0
0.55 0.05 0
0.55 0 0
0.6 0 0
0.55 0.05 0
0.6 0.05 0
0.6 0 0
0.65 0 0
0.6 0.05 0
0.65 0.05 0
0.65 0 0
0.7 0 0
0.65 0.05 0
0.7 0.05 0
0.7 0 0
0.75 0 0
0.7 0.05 0
0.75 0.05 0
0.75 0 0
0.8 0 0
0.75 0.05 0
0.8 0.05 0
0.8 0 0
0.85 0 0
0.8 0.05 0
0.85 0.05 0
0.85 0 0
0.9 0 0
0.85 0.05 0
0.9 0.05 0
0.9 0 0
0.95 0 0
0.9 0.05 0
0.95 0.05 0
0.95 0 0
1 0 0
0.95 0.05 0
1 0.05 0
1 0 0
1.05 0 0
1 0.05 0
1.05 0.05 0
1.05 0 0
1.1 0 0
1.05 0.05 0
1.1 0.05 0
1.1 0 0
1.15 0 0
1.1 0.05 0
1.15 0.05 0
1.15 0 0
1.2 0 0
1.15 0.05 0
1.2 0.05 0
1.2 0 0
1.25 0 0
1.2 0.05 0
1.25 0.05 0
1.25 0 0
1.3 0 0
1.25 0.05 0
1.3 0.05 0
0.1 0.05 0
0.15 0.05 0
0.1 0.1 0
0.15 0.1 0
0.15 0.05 0
0.2 0.05 0
0.15 0.1 0
0.2 0.1 0
0.2 0.05 0
0.25 0.05 0
0.2 0.1 0
0.25 0.1 0
0.25 0.05 0
0.3 0.05 0
0.25 0.1 0
0.3 0.1 0
0.2 0.1 0
0.25 0.1 0
0.2 0.15 0
0.25 0.15 0
0.25 0.1 0
0.3 0.1 0
0.25 0.15 0
0.3 0.15 0
0.65 0.25 0
0.7 0.25 0
0.65 0.3 0
0.7 0.3 0
0.7 0.25 0
0.75 0.25 0
0.7 0.3 0
0.75 0.3 0
0.75 0.25 0
0.8 0.25 0
0.75 0.3 0
0.8 0.3 0
0.8 0.25 0
0.85 0.25 0
0.8 0.3 0
0.85 0.3 0
0.85 0.25 0
0.9 0.25 0
0.85 0.3 0
0.9 0.3 0
0.9 0.25 0
0.95 0.25 0
0.9 0.3 0
0.95 0.3 0
1.05 0.25 0
1.1 0.25 0
1.05 0.3 0
1.1 0.3 0
1.1 0.25 0
1.15 0.25 0
1.1 0.3 0
1.15 0.3 0
1.15 0.25 0
1.2 0.25 0
1.15 0.3 0
1.2 0.3 0
1.2 0.25 0
1.25 0.25 0
1.2 0.3 0
1.25 0.3 0
1.25 0.25 0
1.3 0.25 0
1.25 0.3 0
1.3 0.3 0
1.3 0.25 0
1.35 0.25 0
1.3 0.3 0
1.35 0.3 0
1.75 0.25 0
1.8 0.25 0
1.75 0.3 0
1.8 0.3 0
1.8 0.25 0
1.85 0.25 0
1.8 0.3 0
1.85 0.3 0
1.85 0.25 0
1.9 0.25 0
1.85 0.3 0
1.9 0.3 0
1.9 0.25 0
1.95 0.25 0
1.9 0.3 0
1.95 0.3 0
0.15 0.3 0
0.2 0.3 0
0.15 0.35 0
0.2 0.35 0
0.2 0.3 0
0.25 0.3 0
0.2 0.35 0
0.25 0.35 0
0.25 0.3 0
0.3 0.3 0
0.25 0.35 0
0.3 0.35 0
0.3 0.3 0
0.35 0.3 0
0.3 0.35 0
0.35 0.35 0
0.35 0.3 0
0.4 0.3 0
0.35 0.35 0
0.4 0.35 0
0.4 0.3 0
0.45 0.3 0
0.4 0.35 0
0.45 0.35 0
0.45 0.3 0
0.5 0.3 0
0.45 0.35 0
0.5 0.35 0
0.5 0.3 0
0.55 0.3 0
0.5 0.35 0
0.55 0.35 0
1.05 0.3 0
1.1 0.3 0
1.05 0.35 0
1.1 0.35 0
0.85 0.45 0
0.9 0.45 0
0.85 0.5 0
0.9 0.5 0
0.9 0.45 0
0.95 0.45 0
0.9 0.5 0
0.95 0.5 0
1.9 0.45 0
1.95 0.45 0
1.9 0.5 0
1.95 0.5 0
1.95 0.45 0
2 0.45 0
1.95 0.5 0
2 0.5 0
0.85 0.5 0
0.9 0.5 0
0.85 0.55 0
0.9 0.55 0
0.9 0.5 0
0.95 0.5 0
0.9 0.55 0
0.95 0.55 0
1.9 0.5 0
1.95 0.5 0
1.9 0.55 0
1.95 0.55 0
1.95 0.5 0
2 0.5 0
1.95 0.55 0
2 0.55 0
0.2 0.85 0
0.25 0.85 0
0.2 0.9 0
0.25 0.9 0
0.25 0.85 0
0.3 0.85 0
0.25 0.9 0
0.3 0.9 0
0.1 0.9 0
0.15 0.9 0
0.1 0.95 0
0.15 0.95 0
0.15 0.9 0
0.2 0.9 0
0.15 0.95 0
0.2 0.95 0
0.2 0.9 0
0.25 0.9 0
0.2 0.95 0
0.25 0.95 0
0.25 0.9 0
0.3 0.9 0
0.25 0.95 0
0.3 0.95 0
0 0.95 0
0.05 0.95 0
0 1 0
0.05 1 0
0.05 0.95 0
0.1 0.95 0
0.05 1 0
0.1 1 0
0.1 0.95 0
0.15 0.95 0
0.1 1 0
0.15 1 0
0.15 0.95 0
0.2 0.95 0
0.15 1 0
0.2 1 0
0.2 0.95 0
0.25 0.95 0
0.2 1 0
0.25 1 0
0.25 0.95 0
0.3 0.95 0
0.25 1 0
0.3 1 0
0.3 0.95 0
0.35 0.95 0
0.3 1 0
0.35 1 0
0.35 0.95 0
0.4 0.95 0
0.35 1 0
0.4 1 0
0.4 0.95 0
0.45 0.95 0
0.4 1 0
0.45 1 0
0.45 0.95 0
0.5 0.95 0
0.45 1 0
0.5 1 0
0.5 0.95 0
0.55 0.95 0
0.5 1 0
0.55 1 0
0.55 0.95 0
0.6 0.95 0
0.55 1 0
0.6 1 0
0.6 0.95 0
0.65 0.95 0
0.6 1 0
0.65 1 0
0.65 0.95 0
0.7 0.95 0
0.65 1 0
0.7 1 0
0.7 0.95 0
0.75 0.95 0
0.7 1 0
0.75 1 0
0.75 0.95 0
0.8 0.95 0
0.75 1 0
0.8 1 0
0.8 0.95 0
0.85 0.95 0
0.8 1 0
0.85 1 0
0.85 0.95 0
0.9 0.95 0
0.85 1 0
0.9 1 0
0.9 0.95 0
0.95 0.95 0
0.9 1 0
0.95 1 0
0.95 0.95 0
1 0.95 0
0.95 1 0
1 1 0
1 0.95 0
1.05 0.95 0
1 1 0
1.05 1 0
1.05 0.95 0
1.1 0.95 0
1.05 1 0
1.1 1 0
1.1 0.95 0
1.15 0.95 0
1.1 1 0
1.15 1 0
1.15 0.95 0
1.2 0.95 0
1.15 1 0
1.2 1 0
1.2 0.95 0
1.25 0.95 0
1.2 1 0
1.25 1 0
1.25 0.95 0
1.3 0.95 0
1.25 1 0
1.3 1 0
1.3 0 0
1.325 0 0
1.3 0.025 0
1.325 0.025 0
1.325 0 0
1.35 0 0
1.325 0.025 0
1.35 0.025 0
1.3 0.025 0
1.325 0.025 0
1.3 0.05 0
1.325 0.05 0
1.325 0.025 0
1.35 0.025 0
1.325 0.05 0
1.35 0.05 0
1.35 0 0
1.375 0 0
1.35 0.025 0
1.375 0.025 0
1.375 0 0
1.4 0 0
1.375 0.025 0
1.4 0.025 0
1.35 0.025 0
1.375 0.025 0
1.35 0.05 0
1.375 0.05 0
1.375 0.025 0
1.4 0.025 0
1.375 0.05 0
1.4 0.05 0
1.4 0 0
1.425 0 0
1.4 0.025 0
1.425 0.025 0
1.425 0 0
1.45 0 0
1.425 0.025 0
1.45 0.025 0
1.4 0.025 0
1.425 0.025 0
1.4 0.05 0
1.425 0.05 0
1.425 0.025 0
1.45 0.025 0
1.425 0.05 0
1.45 0.05 0
1.45 0 0
1.475 0 0
1.45 0.025 0
1.475 0.025 0
1.475 0 0
1.5 0 0
1.475 0.025 0
1.5 0.025 0
1.45 0.025 0
1.475 0.025 0
1.45 0.05 0
1.475 0.05 0
1.475 0.025 0
1.5 0.025 0
1.475 0.05 0
1.5 0.05 0
1.5 0 0
1.525 0 0
1.5 0.025 0
1.525 0.025 0
1.525 0 0
1.55 0 0
1.525 0.025 0
1.55 0.025 0
1.5 0.025 0
1.525 0.025 0
1.5 0.05 0
1.525 0.05 0
1.525 0.025 0
1.55 0.025 0
1.525 0.05 0
1.55 0.05 0
1.55 0 0
1.575 0 0
1.55 0.025 0
1.575 0.025 0
1.575 0 0
1.6 0 0
1.575 0.025 0
1.6 0.025 0
1.55 0.025 0
1.575 0.025 0
1.55 0.05 0
1.575 0.05 0
1.575 0.025 0
1.6 0.025 0
1.575 0.05 0
1.6 0.05 0
1.6 0 0
1.625 0 0
1.6 0.025 0
1.625 0.025 0
1.625 0 0
1.65 0 0
1.625 0.025 0
1.65 0.025 0
1.6 0.025 0
1.625 0.025 0
1.6 0.05 0
1.625 0.05 0
1.625 0.025 0
1.65 0.025 0
1.625 0.05 0
1.65 0.05 0
1.65 0 0
1.675 0 0
1.65 0.025 0
1.675 0.025 0
1.675 0 0
1.7 0 0
1.675 0.025 0
1.7 0.025 0
1.65 0.025 0
1.675 0.025 0
1.65 0.05 0
1.675 0.05 0
1.675 0.025 0
1.7 0.025 0
1.675 0.05 0
1.7 0.05 0
1.7 0 0
1.725 0 0
1.7 0.025 0
1.725 0.025 0
1.725 0 0
1.75 0 0
1.725 0.025 0
1.75 0.025 0
1.7 0.025 0
1.725 0.025 0
1.7 0.05 0
1.725 0.05 0
1.725 0.025 0
1.75 0.025 0
1.725 0.05 0
1.75 0.05 0
1.75 0 0
1.775 0 0
1.75 0.025 0
1.775 0.025 0
1.775 0 0
1.8 0 0
1.775 0.025 0
1.8 0.025 0
1.75 0.025 0
1.775 0.025 0
1.75 0.05 0
1.775 0.05 0
1.775 0.025 0
1.8 0.025 0
1.775 0.05 0
1.8 0.05 0
1.8 0 0
1.825 0 0
1.8 0.025 0
1.825 0.025 0
1.825 0 0
1.85 0 0
1.825 0.025 0
1.85 0.025 0
1.8 0.025 0
1.825 0.025 0
1.8 0.05 0
1.825 0.05 0
1.825 0.025 0
1.85 0.025 0
1.825 0.05 0
1.85 0.05 0
1.85 0 0
1.875 0 0
1.85 0.025 0
1.875 0.025 0
1.875 0 0
1.9 0 0
1.875 0.025 0
1.9 0.025 0
1.85 0.025 0
1.875 0.025 0
1.85 0.05 0
1.875 0.05 0
1.875 0.025 0
1.9 0.025 0
1.875 0.05 0
1.9 0.05 0
1.9 0 0
1.925 0 0
1.9 0.025 0
1.925 0.025 0
1.925 0 0
1.95 0 0
1.925 0.025 0
1.95 0.025 0
1.9 0.025 0
1.925 0.025 0
1.9 0.05 0
1.925 0.05 0
1.925 0.025 0
1.95 0.025 0
1.925 0.05 0
1.95 0.05 0
1.95 0 0
1.975 0 0
1.95 0.025 0
1.975 0.025 0
1.975 0 0
2 0 0
1.975 0.025 0
2 0.025 0
1.95 0.025 0
1.975 0.025 0
1.95 0.05 0
1.975 0.05 0
1.975 0.025 0
2 0.025 0
1.975 0.05 0
2 0.05 0
0 0.05 0
0.025 0.05 0
0 0.075 0
0.025 0.075 0
0.025 0.05 0
0.05 0.05 0
0.025 0.075 0
0.05 0.075 0
0 0.075 0
0.025 0.075 0
0 0.1 0
0.025 0.1 0
0.025 0.075 0
0.05 0.075 0
0.025 0.1 0
0.05 0.1 0
0.05 0.05 0
0.075 0.05 0
0.05 0.075 0
0.075 0.075 0
0.075 0.05 0
0.1 0.05 0
0.075 0.075 0
0.1 0.075 0
0.05 0.075 0
0.075 0.075 0
0.05 0.1 0
0.075 0.1 0
0.075 0.075 0
0.1 0.075 0
0.075 0.1 0
0.1 0.1 0
0.3 0.05 0
0.325 0.05 0
0.3 0.075 0
0.325 0.075 0
0.325 0.05 0
0.35 0.05 0
0.325 0.075 0
0.35 0.075 0
0.3 0.075 0
0.325 0.075 0
0.3 0.1 0
0.325 0.1 0
0.325 0.075 0
0.35 0.075 0
0.325 0.1 0
0.35 0.1 0
0.35 0.05 0
0.375 0.05 0
0.35 0.075 0
0.375 0.075 0
0.375 0.05 0
0.4 0.05 0
0.375 0.075 0
0.4 0.075 0
0.35 0.075 0
0.375 0.075 0
0.35 0.1 0
0.375 0.1 0
0.375 0.075 0
0.4 0.075 0
0.375 0.1 0
0.4 0.1 0
0.4 0.05 0
0.425 0.05 0
0.4 0.075 0
0.425 0.075 0
0.425 0.05 0
0.45 0.05 0
0.425 0.075 0
0.45 0.075 0
0.4 0.075 0
0.425 0.075 0
0.4 0.1 0
0.425 0.1 0
0.425 0.075 0
0.45 0.075 0
0.425 0.1 0
0.45 0.1 0
0.45 0.05 0
0.475 0.05 0
0.45 0.075 0
0.475 0.075 0
0.475 0.05 0
0.5 0.05 0
0.475 0.075 0
0.5 0.075 0
0.45 0.075 0
0.475 0.075 0
0.45 0.1 0
0.475 0.1 0
0.475 0.075 0
0.5 0.075 0
0.475 0.1 0
0.5 0.1 0
0.5 0.05 0
0.525 0.05 0
0.5 0.075 0
0.525 0.075 0
0.525 0.05 0
0.55 0.05 0
0.525 0.075 0
0.55 0.075 0
0.5 0.075 0
0.525 0.075 0
0.5 0.1 0
0.525 0.1 0
0.525 0.075 0
0.55 0.075 0
0.525 0.1 0
0.55 0.1 0
0.55 0.05 0
0.575 0.05 0
0.55 0.075 0
0.575 0.075 0
0.575 0.05 0
0.6 0.05 0
0.575 0.075 0
0.6 0.075 0
0.55 0.075 0
0.575 0.075 0
0.55 0.1 0
0.575 0.1 0
0.575 0.075 0
0.6 0.075 0
0.575 0.1 0
0.6 0.1 0
0.6 0.05 0
0.625 0.05 0
0.6 0.075 0
0.625 0.075 0
0.625 0.05 0
0.65 0.05 0
0.625 0.075 0
0.65 0.075 0
0.6 0.075 0
0.625 0.075 0
0.6 0.1 0
0.625 0.1 0
0.625 0.075 0
0.65 0.075 0
0.625 0.1 0
0.65 0.1 0
0.65 0.05 0
0.675 0.05 0
0.65 0.075 0
0.675 0.075 0
0.675 0.05 0
0.7 0.05 0
0.675 0.075 0
0.7 0.075 0
0.65 0.075 0
0.675 0.075 0
0.65 0.1 0
0.675 0.1 0
0.675 0.075 0
0.7 0.075 0
0.675 0.1 0
0.7 0.1 0
0.7 0.05 0
0.725 0.05 0
0.7 0.075 0
0.725 0.075 0
0.725 0.05 0
0.75 0.05 0
0.725 0.075 0
0.75 0.075 0
0.7 0.075 0
0.725 0.075 0
0.7 0.1 0
0.725 0.1 0
0.725 0.075 0
0.75 0.075 0
0.725 0.1 0
0.75 0.1 0
0.75 0.05 0
0.775 0.05 0
0.75 0.075 0
0.775 0.075 0
0.775 0.05 0
0.8 0.05 0
0.775 0.075 0
0.8 0.075 0
0.75 0.075 0
0.775 0.075 0
0.75 0.1 0
0.775 0.1 0
0.775 0.075 0
0.8 0.075 0
0.775 0.1 0
0.8 0.1 0
0.8 0.05 0
0.825 0.05 0
0.8 0.075 0
0.825 0.075 0
0.825 0.05 0
0.85 0.05 0
0.825 0.075 0
0.85 0.075 0
0.8 0.075 0
0.825 0.075 0
0.8 0.1 0
0.825 0.1 0
0.825 0.075 0
0.85 0.075 0
0.825 0.1 0
0.85 0.1 0
0.85 0.05 0
0.875 0.05 0
0.85 0.075 0
0.875 0.075 0
0.875 0.05 0
0.9 0.05 0
0.875 0.075 0
0.9 0.075 0
0.85 0.075 0
0.875 0.075 0
0.85 0.1 0
0.875 0.1 0
0.875 0.075 0
0.9 0.075 0
0.875 0.1 0
0.9 0.1 0
0.9 0.05 0
0.925 0.05 0
0.9 0.075 0
0.925 0.075 0
0.925 0.05 0
0.95 0.05 0
0.925 0.075 0
0.95 0.075 0
0.9 0.075 0
0.925 0.075 0
0.9 0.1 0
0.925 0.1 0
0.925 0.075 0
0.95 0.075 0
0.925 0.1 0
0.95 0.1 0
0.95 0.05 0
0.975 0.05 0
0.95 0.075 0
0.975 0.075 0
0.975 0.05 0
1 0.05 0
0.975 0.075 0
1 0.075 0
0.95 0.075 0
0.975 0.075 0
0.95 0.1 0
0.975 0.1 0
[...]
POINT_DATA 11636
SCALARS x_displacement double 1
LOOKUP_TABLE default
0 -1.59501 0 -0.946665 -1.59501 -2.7703 -0.946665 -1.92045 -2.7703 -3.72732 -1.92045 -2.75114 -3.72732 -4.53362 -2.75114 -3.4712 -4.53362 -5.24788 -3.4712 -4.11283 -5.24788 -5.93415 -4.11283 -4.69563 -5.93415 -6.63738 -4.69563 -5.26551 -6.63738 -7.36424 -5.26551 -5.85172 -7.36424 -8.08485 -5.85172 -6.4627 -8.08485 -8.781 -6.4627 -7.09135 -8.781 -9.45265 -7.09135 -7.7284 -9.45265 -10.1021 -7.7284 -8.3698 -10.1021 -10.7325 -8.3698 -9.01335 -10.7325 -11.3472 -9.01335 -9.65659 -11.3472 -11.9495 -9.65659 -10.2971 -11.9495 -12.5435 -10.2971 -10.9322 -12.5435 -13.1342 -10.9322 -11.5588 -13.1342 -13.7267 -11.5588 -12.174 -13.7267 -14.3265 -12.174 -12.7753 -14.3265 -14.9386 -12.7753 -13.3609 -14.9386 -15.5697 -13.3609 -13.9281 -15.5697 -16.2281 -13.9281 -14.4739 -16.2281 -16.9108 -14.4739 -14.9922 -16.9108 -17.5849 -14.9922 -15.4715 -17.5849 -18.1785 -15.4715 -15.9027 -18.1785 -18.6008 -15.9027 -16.2743 -1.92045 -2.75114 -1.39852 -2.01102 -2.75114 -3.4712 -2.01102 -2.59077 -3.4712 -4.11283 -2.59077 -3.11179 -4.11283 -4.69563 -3.11179 -3.544 -2.59077 -3.11179 -1.86419 -2.26676 -3.11179 -3.544 -2.26676 -2.62273 -3.80687 -4.36352 -2.93491 -3.31537 -4.36352 -4.76101 -3.31537 -3.65387 -4.76101 -5.02656 -3.65387 -3.93268 -5.02656 -5.22449 -3.93268 -4.22151 -5.22449 -5.52783 -4.22151 -4.45377 -5.52783 -6.4941 -4.45377 -5.08059 -7.88481 -7.90005 -6.24168 -6.20442 -7.90005 -7.85524 -6.20442 -6.13946 -7.85524 -7.78639 -6.13946 -5.89989 -7.78639 -7.70097 -5.89989 -5.59707 -7.70097 -7.58151 -5.59707 -5.39149 -7.58151 -7.39409 -5.39149 -5.02276 -9.73922 -10.0113 -7.53937 -7.77164 -10.0113 -9.99399 -7.77164 -7.89868 -9.99399 -10.4175 -7.89868 -7.77795 -10.4175 -10.2904 -7.77795 -7.79614 -0.15405 -0.251254 -0.026929 0.0842378 -0.251254 -0.818841 0.0842378 0.563543 -0.818841 -0.666905 0.563543 0.0266507 -0.666905 -0.825481 0.0266507 0.0128735 -0.825481 -1.05282 0.0128735 -0.0946056 -1.05282 -1.35764 -0.0946056 -0.34119 -1.35764 -1.72603 -0.34119 -1.03481 -1.72603 -2.15095 -1.03481 -1.48275 -6.24168 -6.20442 -4.5894 -4.51846 -1.13322 -1.24544 -0.00274693 0.00246227 -1.24544 -1.29655 0.00246227 0.00808791 -2.13473 -2.36381 0.0343107 0.0387962 -2.36381 -2.38888 0.0387962 0.0412037 -0.00274693 0.00246227 1.13347 1.25346 0.00246227 0.00808791 1.25346 1.31066 0.0343107 0.0387962 2.21361 2.44767 0.0387962 0.0412037 2.44767 2.47534 1.81892 2.22152 2.56903 3.0893 2.22152 2.57634 3.0893 3.52036 1.37952 1.99015 1.92181 2.75291 1.99015 2.56903 2.75291 3.47293 2.56903 3.0893 3.47293 4.11393 3.0893 3.52036 4.11393 4.69599 0 0.947056 0 1.60946 0.947056 1.92181 1.60946 2.79302 1.92181 2.75291 2.79302 3.75355 2.75291 3.47293 3.75355 4.56045 3.47293 4.11393 4.56045 5.2737 4.11393 4.69599 5.2737 5.95799 4.69599 5.26579 5.95799 6.65805 5.26579 5.85343 6.65805 7.37955 5.85343 6.46722 7.37955 8.09273 6.46722 7.0998 8.09273 8.78078 7.0998 7.74135 8.78078 9.44529 7.74135 8.38736 9.44529 10.0896 8.38736 9.03527 10.0896 10.7174 9.03527 9.68252 10.7174 11.332 9.68252 10.3267 11.332 11.9368 10.3267 10.9652 11.9368 12.5358 10.9652 11.5951 12.5358 13.1336 11.5951 12.2138 13.1336 13.7352 12.2138 12.8189 13.7352 14.3453 12.8189 13.4088 14.3453 14.9686 13.4088 13.981 14.9686 15.6114 13.981 14.5322 15.6114 16.2814 14.5322 15.0555 16.2814 16.9745 15.0555 15.539 16.9745 17.6579 15.539 15.974 17.6579 18.2595 15.974 16.3484 18.2595 18.6879 -18.6008 -18.7578 -17.4376 -17.5568 -18.7578 -18.8653 -17.5568 -17.6862 -17.4376 -17.5568 -16.2743 -16.444 -17.5568 -17.6862 -16.444 -16.602 -18.8653 -18.9658 -17.6862 -17.8277 -18.9658 -19.007 -17.8277 -17.9691 -17.6862 -17.8277 -16.602 -16.7565 -17.8277 -17.9691 -16.7565 -16.8948 -19.007 -18.9352 -17.9691 -18.1377 -18.9352 -19.4287 -18.1377 -18.3013 -17.9691 -18.1377 -16.8948 -17.0129 -18.1377 -18.3013 -17.0129 -17.0844 -19.4287 -19.7376 -18.3013 -18.4149 -19.7376 -19.865 -18.4149 -18.5371 -18.3013 -18.4149 -17.0844 -17.085 -18.4149 -18.5371 -17.085 -17.2333 -19.865 -20.0768 -18.5371 -18.3452 -20.0768 -20.1935 -18.3452 -18.7827 -18.5371 -18.3452 -17.2333 -17.2522 -18.3452 -18.7827 -17.2522 -17.5416 -20.1935 -20.4003 -18.7827 -19.0394 -20.4003 -20.5868 -19.0394 -19.241 -18.7827 -19.0394 -17.5416 -17.7904 -19.0394 -19.241 -17.7904 -17.9855 -20.5868 -20.7407 -19.241 -19.3991 -20.7407 -20.8578 -19.3991 -19.5231 -19.241 -19.3991 -17.9855 -18.1236 -19.3991 -19.5231 -18.1236 -18.245 -20.8578 -20.944 -19.5231 -19.6234 -20.944 -21.0052 -19.6234 -19.7027 -19.5231 -19.6234 -18.245 -18.3539 -19.6234 -19.7027 -18.3539 -18.4451 -21.0052 -21.0446 -19.7027 -19.7621 -21.0446 -21.065 -19.7621 -19.8043 -19.7027 -19.7621 -18.4451 -18.5189 -19.7621 -19.8043 -18.5189 -18.5765 -21.065 -21.0697 -19.8043 -19.832 -21.0697 -21.0627 -19.832 -19.8482 -19.8043 -19.832 -18.5765 -18.6209 -19.832 -19.8482 -18.6209 -18.6541 -21.0627 -21.0478 -19.8482 -19.8557 -21.0478 -21.0286 -19.8557 -19.857 -19.8482 -19.8557 -18.6541 -18.6779 -19.8557 -19.857 -18.6779 -18.6943 -21.0286 -21.0081 -19.857 -19.8544 -21.0081 -20.989 -19.8544 -19.85 -19.857 -19.8544 -18.6943 -18.7051 -19.8544 -19.85 -18.7051 -18.7117 -20.989 -20.9735 -19.85 -19.8452 -20.9735 -20.9634 -19.8452 -19.8414 -19.85 -19.8452 -18.7117 -18.7151 -19.8452 -19.8414 -18.7151 -18.7166 -20.9634 -20.9588 -19.8414 -19.8393 -20.9588 -20.958 -19.8393 -19.8392 -19.8414 -19.8393 -18.7166 -18.7175 -19.8393 -19.8392 -18.7175 -18.7191 0 -0.473332 0 -0.396968 -0.473332 -0.946665 -0.396968 -0.832699 0 -0.396968 0 -0.373424 -0.396968 -0.832699 -0.373424 -0.799129 -0.946665 -1.43356 -0.832699 -1.24734 -1.43356 -1.92045 -1.24734 -1.65948 -0.832699 -1.24734 -0.799129 -1.11879 -1.24734 -1.65948 -1.11879 -1.39852 -4.69563 -4.98057 -4.11981 -4.34258 -4.98057 -5.26551 -4.34258 -4.56948 -4.11981 -4.34258 -3.544 -3.7355 -4.34258 -4.56948 -3.7355 -3.8976 -5.26551 -5.55862 -4.56948 -4.81138 -5.55862 -5.85172 -4.81138 -5.07202 -4.56948 -4.81138 -3.8976 -4.05928 -4.81138 -5.07202 -4.05928 -4.24747 -5.85172 -6.15721 -5.07202 -5.35156 -6.15721 -6.4627 -5.35156 -5.64302 -5.07202 -5.35156 -4.24747 -4.51013 -5.35156 -5.64302 -4.51013 -4.80398 -6.4627 -6.77703 -5.64302 -5.94111 -6.77703 -7.09135 -5.94111 -6.24548 -5.64302 -5.94111 -4.80398 -5.09543 -5.94111 -6.24548 -5.09543 -5.3893 -7.09135 -7.40987 -6.24548 -6.55346 -7.40987 -7.7284 -6.55346 -6.86691 -6.24548 -6.55346 -5.3893 -5.6906 -6.55346 -6.86691 -5.6906 -5.99926 -7.7284 -8.0491 -6.86691 -7.18413 -8.0491 -8.3698 -7.18413 -7.50564 -6.86691 -7.18413 -5.99926 -6.31647 -7.18413 -7.50564 -6.31647 -6.63963 -8.3698 -8.69157 -7.50564 -7.82958 -8.69157 -9.01335 -7.82958 -8.15643 -7.50564 -7.82958 -6.63963 -6.96739 -7.82958 -8.15643 -6.96739 -7.29989 -9.01335 -9.33497 -8.15643 -8.48481 -9.33497 -9.65659 -8.48481 -8.81487 -8.15643 -8.48481 -7.29989 -7.63659 -8.48481 -8.81487 -7.63659 -7.97681 -9.65659 -9.97686 -8.81487 -9.14527 -9.97686 -10.2971 -9.14527 -9.47571 -8.81487 -9.14527 -7.97681 -8.31863 -9.14527 -9.47571 -8.31863 -8.66186 -10.2971 -10.6147 -9.47571 -9.80499 -10.6147 -10.9322 -9.80499 -10.1324 -9.47571 -9.80499 -8.66186 -9.00353 -9.80499 -10.1324 -9.00353 -9.34412 -10.9322 -11.2455 -10.1324 -10.4572 -11.2455 -11.5588 -10.4572 -10.7781 -10.1324 -10.4572 -9.34412 -9.68023 -10.4572 -10.7781 -9.68023 -10.0126 -11.5588 -11.8664 -10.7781 -11.0947 -11.8664 -12.174 -11.0947 -11.4054 -10.7781 -11.0947 -10.0126 -10.3375 -11.0947 -11.4054 -10.3375 -10.6555 -12.174 -12.4746 -11.4054 -11.7103 -12.4746 -12.7753 -11.7103 -12.0076 -11.4054 -11.7103 -10.6555 -10.963 -11.7103 -12.0076 -10.963 -11.2609 -12.7753 -13.0681 -12.0076 -12.2979 -13.0681 -13.3609 -12.2979 -12.5795 -12.0076 -12.2979 -11.2609 -11.5454 -12.2979 -12.5795 -11.5454 -11.8196 -13.3609 -13.6445 -12.5795 -12.8536 -13.6445 -13.9281 -12.8536 -13.1175 -12.5795 -12.8536 -11.8196 -12.083 -12.8536 -13.1175 -12.083 -12.3355 -13.9281 -14.201 -13.1175 -13.3728 -14.201 -14.4739 -13.3728 -13.6155 -13.1175 -13.3728 -12.3355 -12.5752 -13.3728 -13.6155 -12.5752 -12.7983 -14.4739 -14.7331 -13.6155 -13.8478 -14.7331 -14.9922 -13.8478 -14.0651 -13.6155 -13.8478 -12.7983 -12.9984 -13.8478 -14.0651 -12.9984 -13.1787 -14.9922 -15.2318 -14.0651 -14.2711 -15.2318 -15.4715 -14.2711 -14.4639 -14.0651 -14.2711 -13.1787 -13.3384 -14.2711 -14.4639 -13.3384 -13.4874 -15.4715 -15.6871 -14.4639 -14.6508 -15.6871 -15.9027 -14.6508 -14.8305 -14.4639 -14.6508 -13.4874 -13.6297 -14.6508 -14.8305 -13.6297 -13.7717 -15.9027 -16.0885 -14.8305 -15.0071 -16.0885 -16.2743 -15.0071 -15.1763 -14.8305 -15.0071 -13.7717 -13.9166 -15.0071 -15.1763 -13.9166 -14.062 -16.2743 -16.444 -15.1763 -15.3327 -16.444 -16.602 -15.3327 -15.4801 -15.1763 -15.3327 -14.062 -14.2016 -15.3327 -15.4801 -14.2016 -14.3316 -16.602 -16.7565 -15.4801 -15.6185 -16.7565 -16.8948 -15.6185 -15.7416 -15.4801 -15.6185 -14.3316 -14.4575 -15.6185 -15.7416 -14.4575 -14.5822 -16.8948 -17.0129 -15.7416 -15.8389 -17.0129 -17.0844 -15.8389 -15.9248 -15.7416 -15.8389 -14.5822 -14.7017 -15.8389 -15.9248 -14.7017 -14.842 -17.0844 -17.085 -15.9248 -16.0896 -17.085 -17.2333 -16.0896 -16.3954 -15.9248 -16.0896 -14.842 -15.0258 -16.0896 -16.3954 -15.0258 -15.1919 -17.2333 -17.2522 -16.3954 -16.5305 -17.2522 -17.5416 -16.5305 -16.5862 -16.3954 -16.5305 -15.1919 -15.3045 -16.5305 -16.5862 -15.3045 -15.3498 -17.5416 -17.7904 -16.5862 -16.6904 -17.7904 -17.9855 -16.6904 -16.7727 -16.5862 -16.6904 -15.3498 -15.2975 -16.6904 -16.7727 -15.2975 -15.5394 -17.9855 -18.1236 -16.7727 -16.8888 -18.1236 -18.245 -16.8888 -17.0153 -16.7727 -16.8888 -15.5394 -15.7172 -16.8888 -17.0153 -15.7172 -15.8266 -18.245 -18.3539 -17.0153 -17.1273 -18.3539 -18.4451 -17.1273 -17.2272 -17.0153 -17.1273 -15.8266 -15.9394 -17.1273 -17.2272 -15.9394 -16.0346 -18.4451 -18.5189 -17.2272 -17.3094 -18.5189 -18.5765 -17.3094 -17.3789 -17.2272 -17.3094 -16.0346 -16.1276 -17.3094 -17.3789 -16.1276 -16.2102 -18.5765 -18.6209 -17.3789 -17.4364 -18.6209 -18.6541 -17.4364 -17.4822 -17.3789 -17.4364 -16.2102 -16.2795 -17.4364 -17.4822 -16.2795 -16.3347 -18.6541 -18.6779 -17.4822 -17.518 -18.6779 -18.6943 -17.518 -17.5457 -17.4822 -17.518 -16.3347 -16.3789 -17.518 -17.5457 -16.3789 -16.4151 -18.6943 -18.7051 -17.5457 -17.5666 -18.7051 -18.7117 -17.5666 -17.5817 -17.5457 -17.5666 -16.4151 -16.4442 -17.5666 -17.5817 -16.4442 -16.4664 -18.7117 -18.7151 -17.5817 -17.5917 -18.7151 -18.7166 -17.5917 -17.5974 -17.5817 -17.5917 -16.4664 -16.4818 -17.5917 -17.5974 -16.4818 -16.491 -18.7166 -18.7175 -17.5974 -17.6004 -18.7175 -18.7191 -17.6004 -17.6035 -17.5974 -17.6004 -16.491 -16.4956 -17.6004 -17.6035 -16.4956 -16.4994 0 -0.373424 0 -0.442026 -0.373424 -0.799129 -0.442026 -0.771253 0 -0.442026 0 -0.464083 -0.442026 -0.771253 -0.464083 -0.569145 -0.799129 -1.11879 -0.771253 -0.947776 -1.11879 -1.39852 -0.947776 -1.13857 -0.771253 -0.947776 -0.569145 -0.661339 -0.947776 -1.13857 -0.661339 -0.820289 -1.39852 -1.70477 -1.13857 -1.39183 -1.70477 -2.01102 -1.39183 -1.68316 -1.13857 -1.39183 -0.820289 -1.10472 -1.39183 -1.68316 -1.10472 -1.43616 -2.01102 -2.3009 -1.68316 -1.96216 -2.3009 -2.59077 -1.96216 -2.22748 -1.68316 -1.96216 -1.43616 -1.66857 -1.96216 -2.22748 -1.66857 -1.86419 -3.544 -3.7355 -3.08336 -3.22299 -3.7355 -3.8976 -3.22299 -3.35466 -3.08336 -3.22299 -2.62273 -2.79167 -3.22299 -3.35466 -2.79167 -2.94178 -3.8976 -4.05928 -3.35466 -3.46351 -4.05928 -4.24747 -3.46351 -3.5656 -3.35466 -3.46351 -2.94178 -3.08278 -3.46351 -3.5656 -3.08278 -3.23585 -4.24747 -4.51013 -3.5656 -3.72495 -4.51013 -4.80398 -3.72495 -3.99268 -3.5656 -3.72495 -3.23585 -3.42272 -3.72495 -3.99268 -3.42272 -3.59647 -4.80398 -5.09543 -3.99268 -4.23724 -5.09543 -5.3893 -4.23724 -4.51407 -3.99268 -4.23724 -3.59647 -3.75181 -4.23724 -4.51407 -3.75181 -3.88096 -5.3893 -5.6906 -4.51407 -4.81267 -5.6906 -5.99926 -4.81267 -5.12537 -4.51407 -4.81267 -3.88096 -3.98279 -4.81267 -5.12537 -3.98279 -4.26317 -5.99926 -6.31647 -5.12537 -5.44572 -6.31647 -6.63963 -5.44572 -5.77475 -5.12537 -5.44572 -4.26317 -4.57537 -5.44572 -5.77475 -4.57537 -4.90959 -6.63963 -6.96739 -5.77475 -6.10737 -6.96739 -7.29989 -6.10737 -6.44714 -5.77475 -6.10737 -4.90959 -5.29556 -6.10737 -6.44714 -5.29556 -5.75652 -7.29989 -7.63659 -6.44714 -6.79657 -7.63659 -7.97681 -6.79657 -7.14767 -6.44714 -6.79657 -5.75652 -6.18285 -6.79657 -7.14767 -6.18285 -6.55605 -7.97681 -8.31863 -7.14767 -7.50662 -8.31863 -8.66186 -7.50662 -7.86279 -7.14767 -7.50662 -6.55605 -6.90886 -7.50662 -7.86279 -6.90886 -7.26738 -8.66186 -9.00353 -7.86279 -8.22365 -9.00353 -9.34412 -8.22365 -8.5768 -7.86279 -8.22365 -7.26738 -7.61091 -8.22365 -8.5768 -7.61091 -7.96372 -9.34412 -9.68023 -8.5768 -8.93117 -9.68023 -10.0126 -8.93117 -9.27348 -8.5768 -8.93117 -7.96372 -8.30092 -8.93117 -9.27348 -8.30092 -8.64129 -10.0126 -10.3375 -9.27348 -9.61252 -10.3375 -10.6555 -9.61252 -9.93543 -9.27348 -9.61252 -8.64129 -8.96437 -9.61252 -9.93543 -8.96437 -9.2842 -10.6555 -10.963 -9.93543 -10.25 -10.963 -11.2609 -10.25 -10.5468 -9.93543 -10.25 -9.2842 -9.58619 -10.25 -10.5468 -9.58619 -9.88254 -11.2609 -11.5454 -10.5468 -10.8291 -11.5454 -11.8196 -10.8291 -11.0961 -10.5468 -10.8291 -9.88254 -10.1624 -10.8291 -11.0961 -10.1624 -10.4364 -11.8196 -12.083 -11.0961 -11.355 -12.083 -12.3355 -11.355 -11.6005 -11.0961 -11.355 -10.4364 -10.7041 -11.355 -11.6005 -10.7041 -10.9482 -12.3355 -12.5752 -11.6005 -11.8313 -12.5752 -12.7983 -11.8313 -12.0282 -11.6005 -11.8313 -10.9482 -11.1397 -11.8313 -12.0282 -11.1397 -11.2848 -12.7983 -12.9984 -12.0282 -12.1889 -12.9984 -13.1787 -12.1889 -12.3208 -12.0282 -12.1889 -11.2848 -11.3942 -12.1889 -12.3208 -11.3942 -11.4777 -13.1787 -13.3384 -12.3208 -12.4313 -13.3384 -13.4874 -12.4313 -12.5289 -12.3208 -12.4313 -11.4777 -11.5379 -12.4313 -12.5289 -11.5379 -11.5808 -13.4874 -13.6297 -12.5289 -12.6177 -13.6297 -13.7717 -12.6177 -12.703 -12.5289 -12.6177 -11.5808 -11.6107 -12.6177 -12.703 -11.6107 -11.6347 -13.7717 -13.9166 -12.703 -12.7964 -13.9166 -14.062 -12.7964 -12.9029 -12.703 -12.7964 -11.6347 -11.6613 -12.7964 -12.9029 -11.6613 -11.7103 -14.062 -14.2016 -12.9029 -13.0261 -14.2016 -14.3316 -13.0261 -13.1618 -12.9029 -13.0261 -11.7103 -11.8254 -13.0261 -13.1618 -11.8254 -11.9911 -14.3316 -14.4575 -13.1618 -13.2975 -14.4575 -14.5822 -13.2975 -13.4339 -13.1618 -13.2975 -11.9911 -12.1357 -13.2975 -13.4339 -12.1357 -12.2697 -14.5822 -14.7017 -13.4339 -13.5716 -14.7017 -14.842 -13.5716 -13.7126 -13.4339 -13.5716 -12.2697 -12.4072 -13.5716 -13.7126 -12.4072 -12.5415 -14.842 -15.0258 -13.7126 -13.8521 -15.0258 -15.1919 -13.8521 -13.9816 -13.7126 -13.8521 -12.5415 -12.6748 -13.8521 -13.9816 -12.6748 -12.8153 -15.1919 -15.3045 -13.9816 -14.0979 -15.3045 -15.3498 -14.0979 -14.1993 -13.9816 -14.0979 -12.8153 -12.9559 -14.0979 -14.1993 -12.9559 -13.0914 -15.3498 -15.2975 -14.1993 -14.3318 -15.2975 -15.5394 -14.3318 -14.5378 -14.1993 -14.3318 -13.0914 -13.2299 -14.3318 -14.5378 -13.2299 -13.3325 -15.5394 -15.7172 -14.5378 -14.6508 -15.7172 -15.8266 -14.6508 -14.74 -14.5378 -14.6508 -13.3325 -13.4023 -14.6508 -14.74 -13.4023 -13.5155 -15.8266 -15.9394 -14.74 -14.6998 -15.9394 -16.0346 -14.6998 -14.8551 -14.74 -14.6998 -13.5155 -13.4935 -14.6998 -14.8551 -13.4935 -13.7163 -16.0346 -16.1276 -14.8551 -14.9724 -16.1276 -16.2102 -14.9724 -15.0754 -14.8551 -14.9724 -13.7163 -13.8738 -14.9724 -15.0754 -13.8738 -13.989 -16.2102 -16.2795 -15.0754 -15.1537 -16.2795 -16.3347 -15.1537 -15.2125 -15.0754 -15.1537 -13.989 -14.0554 -15.1537 -15.2125 -14.0554 -14.1144 -16.3347 -16.3789 -15.2125 -15.2626 -16.3789 -16.4151 -15.2626 -15.3061 -15.2125 -15.2626 -14.1144 -14.1715 -15.2626 -15.3061 -14.1715 -14.2226 -16.4151 -16.4442 -15.3061 -15.3422 -16.4442 -16.4664 -15.3422 -15.3706 -15.3061 -15.3422 -14.2226 -14.2646 -15.3422 -15.3706 -14.2646 -14.2978 -16.4664 -16.4818 -15.3706 -15.3911 -16.4818 -16.491 -15.3911 -15.4038 -15.3706 -15.3911 -14.2978 -14.3229 -15.3911 -15.4038 -14.3229 -14.34 -16.491 -16.4956 -15.4038 -15.4096 -16.4956 -16.4994 -15.4096 -15.413 -15.4038 -15.4096 -14.34 -14.3475 -15.4096 -15.413 -14.3475 -14.3491 0 -0.464083 0 -0.11695 -0.464083 -0.569145 -0.11695 -0.266299 0 -0.11695 0 -0.192733 -0.11695 -0.266299 -0.192733 -0.403468 -0.569145 -0.661339 -0.266299 -0.33827 -0.661339 -0.820289 -0.33827 -0.510405 -0.266299 -0.33827 -0.403468 -0.69607 -0.33827 -0.510405 -0.69607 -0.730007 -0.820289 -1.10472 -0.510405 -0.98381 -1.10472 -1.43616 -0.98381 -1.22874 -0.510405 -0.98381 -0.730007 -0.896263 -0.98381 -1.22874 -0.896263 -0.903793 -1.43616 -1.66857 -1.22874 -1.36061 -1.66857 -1.86419 -1.36061 -1.50475 -1.22874 -1.36061 -0.903793 -0.981977 -1.36061 -1.50475 -0.981977 -1.12459 -1.86419 -2.06548 -1.50475 -1.686 -2.06548 -2.26676 -1.686 -1.87952 -1.50475 -1.686 -1.12459 -1.32677 -1.686 -1.87952 -1.32677 -1.54462 -2.26676 -2.44475 -1.87952 -2.06502 -2.44475 -2.62273 -2.06502 -2.23822 -1.87952 -2.06502 -1.54462 -1.7225 -2.06502 -2.23822 -1.7225 -1.87794 -2.62273 -2.79167 -2.23822 -2.40424 -2.79167 -2.94178 -2.40424 -2.56757 -2.23822 -2.40424 -1.87794 -2.03817 -2.40424 -2.56757 -2.03817 -2.20279 -2.94178 -3.08278 -2.56757 -2.7316 -3.08278 -3.23585 -2.7316 -2.89904 -2.56757 -2.7316 -2.20279 -2.37125 -2.7316 -2.89904 -2.37125 -2.5394 -3.23585 -3.42272 -2.89904 -3.05891 -3.42272 -3.59647 -3.05891 -3.21234 -2.89904 -3.05891 -2.5394 -2.70389 -3.05891 -3.21234 -2.70389 -2.8796 -3.59647 -3.75181 -3.21234 -3.37658 -3.75181 -3.88096 -3.37658 -3.55358 -3.21234 -3.37658 -2.8796 -3.07149 -3.37658 -3.55358 -3.07149 -3.26324 -3.88096 -3.98279 -3.55358 -3.77051 -3.98279 -4.26317 -3.77051 -4.023 -3.55358 -3.77051 -3.26324 -3.4499 -3.77051 -4.023 -3.4499 -3.61189 -4.26317 -4.57537 -4.023 -4.17602 -4.57537 -4.90959 -4.17602 -4.25004 -4.023 -4.17602 -3.61189 -3.76218 -4.17602 -4.25004 -3.76218 -3.8506 -4.90959 -5.29556 -4.25004 -4.44348 -5.29556 -5.75652 -4.44348 -4.92557 -4.25004 -4.44348 -3.8506 -3.74692 -4.44348 -4.92557 -3.74692 -3.99347 -5.75652 -6.18285 -4.92557 -5.46111 -6.18285 -6.55605 -5.46111 -5.90306 -4.92557 -5.46111 -3.99347 -4.31673 -5.46111 -5.90306 -4.31673 -4.98051 -6.55605 -6.90886 -5.90306 -6.25781 -6.90886 -7.26738 -6.25781 -6.6185 -5.90306 -6.25781 -4.98051 -5.41182 -6.25781 -6.6185 -5.41182 -5.69882 -7.26738 -7.61091 -6.6185 -6.95938 -7.61091 -7.96372 -6.95938 -7.30722 -6.6185 -6.95938 -5.69882 -6.13702 -6.95938 -7.30722 -6.13702 -6.47028 -7.96372 -8.30092 -7.30722 -7.63953 -8.30092 -8.64129 -7.63953 -7.97351 -7.30722 -7.63953 -6.47028 -6.74268 -7.63953 -7.97351 -6.74268 -7.05869 -8.64129 -8.96437 -7.97351 -8.29014 -8.96437 -9.2842 -8.29014 -8.60592 -7.97351 -8.29014 -7.05869 -7.50631 -8.29014 -8.60592 -7.50631 -8.06198 -9.2842 -9.58619 -8.60592 -8.90895 -9.58619 -9.88254 -8.90895 -9.21139 -8.60592 -8.90895 -8.06198 -8.62037 -8.90895 -9.21139 -8.62037 -8.8643 -9.88254 -10.1624 -9.21139 -9.55236 -10.1624 -10.4364 -9.55236 -9.86514 -9.21139 -9.55236 -8.8643 -9.10609 -9.55236 -9.86514 -9.10609 -9.28108 -10.4364 -10.7041 -9.86514 -10.1392 -10.7041 -10.9482 -10.1392 -10.3022 -9.86514 -10.1392 -9.28108 -9.42664 -10.1392 -10.3022 -9.42664 -9.53416 -10.9482 -11.1397 -10.3022 -10.4196 -11.1397 -11.2848 -10.4196 -10.5111 -10.3022 -10.4196 -9.53416 -9.61775 -10.4196 -10.5111 -9.61775 -9.6776 -11.2848 -11.3942 -10.5111 -10.5785 -11.3942 -11.4777 -10.5785 -10.6177 -10.5111 -10.5785 -9.6776 -9.71077 -10.5785 -10.6177 -9.71077 -9.71865 -11.4777 -11.5379 -10.6177 -10.6333 -11.5379 -11.5808 -10.6333 -10.6305 -10.6177 -10.6333 -9.71865 -9.70555 -10.6333 -10.6305 -9.70555 -9.67642 -11.5808 -11.6107 -10.6305 -10.6169 -11.6107 -11.6347 -10.6169 -10.5948 -10.6305 -10.6169 -9.67642 -9.63675 -10.6169 -10.5948 -9.63675 -9.58699 -11.6347 -11.6613 -10.5948 -10.5659 -11.6613 -11.7103 -10.5659 -10.5492 -10.5948 -10.5659 -9.58699 -9.51667 -10.5659 -10.5492 -9.51667 -9.44221 -11.7103 -11.8254 -10.5492 -10.6293 -11.8254 -11.9911 -10.6293 -10.813 -10.5492 -10.6293 -9.44221 -9.4073 -10.6293 -10.813 -9.4073 -9.55996 -11.9911 -12.1357 -10.813 -10.9427 -12.1357 -12.2697 -10.9427 -11.0725 -10.813 -10.9427 -9.55996 -9.70962 -10.9427 -11.0725 -9.70962 -9.87363 -12.2697 -12.4072 -11.0725 -11.2202 -12.4072 -12.5415 -11.2202 -11.376 -11.0725 -11.2202 -9.8736