# vtk DataFile Version 3.0
#This file was generated by the deal.II library on 2015/9/3 at 12: 1: 1
ASCII
DATASET UNSTRUCTURED_GRID

POINTS 3200 double
0 0 0
0.05 0 0
0 0.05 0
0.05 0.05 0
0.05 0 0
0.1 0 0
0.05 0.05 0
0.1 0.05 0
0.1 0 0
0.15 0 0
0.1 0.05 0
0.15 0.05 0
0.15 0 0
0.2 0 0
0.15 0.05 0
0.2 0.05 0
0.2 0 0
0.25 0 0
0.2 0.05 0
0.25 0.05 0
0.25 0 0
0.3 0 0
0.25 0.05 0
0.3 0.05 0
0.3 0 0
0.35 0 0
0.3 0.05 0
0.35 0.05 0
0.35 0 0
0.4 0 0
0.35 0.05 0
0.4 0.05 0
0.4 0 0
0.45 0 0
0.4 0.05 0
0.45 0.05 0
0.45 0 0
0.5 0 0
0.45 0.05 0
0.5 0.05 0
0.5 0 0
0.55 0 0
0.5 0.05 0
0.55 0.05 0
0.55 0 0
0.6 0 0
0.55 0.05 0
0.6 0.05 0
0.6 0 0
0.65 0 0
0.6 0.05 0
0.65 0.05 0
0.65 0 0
0.7 0 0
0.65 0.05 0
0.7 0.05 0
0.7 0 0
0.75 0 0
0.7 0.05 0
0.75 0.05 0
0.75 0 0
0.8 0 0
0.75 0.05 0
0.8 0.05 0
0.8 0 0
0.85 0 0
0.8 0.05 0
0.85 0.05 0
0.85 0 0
0.9 0 0
0.85 0.05 0
0.9 0.05 0
0.9 0 0
0.95 0 0
0.9 0.05 0
0.95 0.05 0
0.95 0 0
1 0 0
0.95 0.05 0
1 0.05 0
1 0 0
1.05 0 0
1 0.05 0
1.05 0.05 0
1.05 0 0
1.1 0 0
1.05 0.05 0
1.1 0.05 0
1.1 0 0
1.15 0 0
1.1 0.05 0
1.15 0.05 0
1.15 0 0
1.2 0 0
1.15 0.05 0
1.2 0.05 0
1.2 0 0
1.25 0 0
1.2 0.05 0
1.25 0.05 0
1.25 0 0
1.3 0 0
1.25 0.05 0
1.3 0.05 0
1.3 0 0
1.35 0 0
1.3 0.05 0
1.35 0.05 0
1.35 0 0
1.4 0 0
1.35 0.05 0
1.4 0.05 0
1.4 0 0
1.45 0 0
1.4 0.05 0
1.45 0.05 0
1.45 0 0
1.5 0 0
1.45 0.05 0
1.5 0.05 0
1.5 0 0
1.55 0 0
1.5 0.05 0
1.55 0.05 0
1.55 0 0
1.6 0 0
1.55 0.05 0
1.6 0.05 0
1.6 0 0
1.65 0 0
1.6 0.05 0
1.65 0.05 0
1.65 0 0
1.7 0 0
1.65 0.05 0
1.7 0.05 0
1.7 0 0
1.75 0 0
1.7 0.05 0
1.75 0.05 0
1.75 0 0
1.8 0 0
1.75 0.05 0
1.8 0.05 0
1.8 0 0
1.85 0 0
1.8 0.05 0
1.85 0.05 0
1.85 0 0
1.9 0 0
1.85 0.05 0
1.9 0.05 0
1.9 0 0
1.95 0 0
1.9 0.05 0
1.95 0.05 0
1.95 0 0
2 0 0
1.95 0.05 0
2 0.05 0
0 0.05 0
0.05 0.05 0
0 0.1 0
0.05 0.1 0
0.05 0.05 0
0.1 0.05 0
0.05 0.1 0
0.1 0.1 0
0.1 0.05 0
0.15 0.05 0
0.1 0.1 0
0.15 0.1 0
0.15 0.05 0
0.2 0.05 0
0.15 0.1 0
0.2 0.1 0
0.2 0.05 0
0.25 0.05 0
0.2 0.1 0
0.25 0.1 0
0.25 0.05 0
0.3 0.05 0
0.25 0.1 0
0.3 0.1 0
0.3 0.05 0
0.35 0.05 0
0.3 0.1 0
0.35 0.1 0
0.35 0.05 0
0.4 0.05 0
0.35 0.1 0
0.4 0.1 0
0.4 0.05 0
0.45 0.05 0
0.4 0.1 0
0.45 0.1 0
0.45 0.05 0
0.5 0.05 0
0.45 0.1 0
0.5 0.1 0
0.5 0.05 0
0.55 0.05 0
0.5 0.1 0
0.55 0.1 0
0.55 0.05 0
0.6 0.05 0
0.55 0.1 0
0.6 0.1 0
0.6 0.05 0
0.65 0.05 0
0.6 0.1 0
0.65 0.1 0
0.65 0.05 0
0.7 0.05 0
0.65 0.1 0
0.7 0.1 0
0.7 0.05 0
0.75 0.05 0
0.7 0.1 0
0.75 0.1 0
0.75 0.05 0
0.8 0.05 0
0.75 0.1 0
0.8 0.1 0
0.8 0.05 0
0.85 0.05 0
0.8 0.1 0
0.85 0.1 0
0.85 0.05 0
0.9 0.05 0
0.85 0.1 0
0.9 0.1 0
0.9 0.05 0
0.95 0.05 0
0.9 0.1 0
0.95 0.1 0
0.95 0.05 0
1 0.05 0
0.95 0.1 0
1 0.1 0
1 0.05 0
1.05 0.05 0
1 0.1 0
1.05 0.1 0
1.05 0.05 0
1.1 0.05 0
1.05 0.1 0
1.1 0.1 0
1.1 0.05 0
1.15 0.05 0
1.1 0.1 0
1.15 0.1 0
1.15 0.05 0
1.2 0.05 0
1.15 0.1 0
1.2 0.1 0
1.2 0.05 0
1.25 0.05 0
1.2 0.1 0
1.25 0.1 0
1.25 0.05 0
1.3 0.05 0
1.25 0.1 0
1.3 0.1 0
1.3 0.05 0
1.35 0.05 0
1.3 0.1 0
1.35 0.1 0
1.35 0.05 0
1.4 0.05 0
1.35 0.1 0
1.4 0.1 0
1.4 0.05 0
1.45 0.05 0
1.4 0.1 0
1.45 0.1 0
1.45 0.05 0
1.5 0.05 0
1.45 0.1 0
1.5 0.1 0
1.5 0.05 0
1.55 0.05 0
1.5 0.1 0
1.55 0.1 0
1.55 0.05 0
1.6 0.05 0
1.55 0.1 0
1.6 0.1 0
1.6 0.05 0
1.65 0.05 0
1.6 0.1 0
1.65 0.1 0
1.65 0.05 0
1.7 0.05 0
1.65 0.1 0
1.7 0.1 0
1.7 0.05 0
1.75 0.05 0
1.7 0.1 0
1.75 0.1 0
1.75 0.05 0
1.8 0.05 0
1.75 0.1 0
1.8 0.1 0
1.8 0.05 0
1.85 0.05 0
1.8 0.1 0
1.85 0.1 0
1.85 0.05 0
1.9 0.05 0
1.85 0.1 0
1.9 0.1 0
1.9 0.05 0
1.95 0.05 0
1.9 0.1 0
1.95 0.1 0
1.95 0.05 0
2 0.05 0
1.95 0.1 0
2 0.1 0
0 0.1 0
0.05 0.1 0
0 0.15 0
0.05 0.15 0
0.05 0.1 0
0.1 0.1 0
0.05 0.15 0
0.1 0.15 0
0.1 0.1 0
0.15 0.1 0
0.1 0.15 0
0.15 0.15 0
0.15 0.1 0
0.2 0.1 0
0.15 0.15 0
0.2 0.15 0
0.2 0.1 0
0.25 0.1 0
0.2 0.15 0
0.25 0.15 0
0.25 0.1 0
0.3 0.1 0
0.25 0.15 0
0.3 0.15 0
0.3 0.1 0
0.35 0.1 0
0.3 0.15 0
0.35 0.15 0
0.35 0.1 0
0.4 0.1 0
0.35 0.15 0
0.4 0.15 0
0.4 0.1 0
0.45 0.1 0
0.4 0.15 0
0.45 0.15 0
0.45 0.1 0
0.5 0.1 0
0.45 0.15 0
0.5 0.15 0
0.5 0.1 0
0.55 0.1 0
0.5 0.15 0
0.55 0.15 0
0.55 0.1 0
0.6 0.1 0
0.55 0.15 0
0.6 0.15 0
0.6 0.1 0
0.65 0.1 0
0.6 0.15 0
0.65 0.15 0
0.65 0.1 0
0.7 0.1 0
0.65 0.15 0
0.7 0.15 0
0.7 0.1 0
0.75 0.1 0
0.7 0.15 0
0.75 0.15 0
0.75 0.1 0
0.8 0.1 0
0.75 0.15 0
0.8 0.15 0
0.8 0.1 0
0.85 0.1 0
0.8 0.15 0
0.85 0.15 0
0.85 0.1 0
0.9 0.1 0
0.85 0.15 0
0.9 0.15 0
0.9 0.1 0
0.95 0.1 0
0.9 0.15 0
0.95 0.15 0
0.95 0.1 0
1 0.1 0
0.95 0.15 0
1 0.15 0
1 0.1 0
1.05 0.1 0
1 0.15 0
1.05 0.15 0
1.05 0.1 0
1.1 0.1 0
1.05 0.15 0
1.1 0.15 0
1.1 0.1 0
1.15 0.1 0
1.1 0.15 0
1.15 0.15 0
1.15 0.1 0
1.2 0.1 0
1.15 0.15 0
1.2 0.15 0
1.2 0.1 0
1.25 0.1 0
1.2 0.15 0
1.25 0.15 0
1.25 0.1 0
1.3 0.1 0
1.25 0.15 0
1.3 0.15 0
1.3 0.1 0
1.35 0.1 0
1.3 0.15 0
1.35 0.15 0
1.35 0.1 0
1.4 0.1 0
1.35 0.15 0
1.4 0.15 0
1.4 0.1 0
1.45 0.1 0
1.4 0.15 0
1.45 0.15 0
1.45 0.1 0
1.5 0.1 0
1.45 0.15 0
1.5 0.15 0
1.5 0.1 0
1.55 0.1 0
1.5 0.15 0
1.55 0.15 0
1.55 0.1 0
1.6 0.1 0
1.55 0.15 0
1.6 0.15 0
1.6 0.1 0
1.65 0.1 0
1.6 0.15 0
1.65 0.15 0
1.65 0.1 0
1.7 0.1 0
1.65 0.15 0
1.7 0.15 0
1.7 0.1 0
1.75 0.1 0
1.7 0.15 0
1.75 0.15 0
1.75 0.1 0
1.8 0.1 0
1.75 0.15 0
1.8 0.15 0
1.8 0.1 0
1.85 0.1 0
1.8 0.15 0
1.85 0.15 0
1.85 0.1 0
1.9 0.1 0
1.85 0.15 0
1.9 0.15 0
1.9 0.1 0
1.95 0.1 0
1.9 0.15 0
1.95 0.15 0
1.95 0.1 0
2 0.1 0
1.95 0.15 0
2 0.15 0
0 0.15 0
0.05 0.15 0
0 0.2 0
0.05 0.2 0
0.05 0.15 0
0.1 0.15 0
0.05 0.2 0
0.1 0.2 0
0.1 0.15 0
0.15 0.15 0
0.1 0.2 0
0.15 0.2 0
0.15 0.15 0
0.2 0.15 0
0.15 0.2 0
0.2 0.2 0
0.2 0.15 0
0.25 0.15 0
0.2 0.2 0
0.25 0.2 0
0.25 0.15 0
0.3 0.15 0
0.25 0.2 0
0.3 0.2 0
0.3 0.15 0
0.35 0.15 0
0.3 0.2 0
0.35 0.2 0
0.35 0.15 0
0.4 0.15 0
0.35 0.2 0
0.4 0.2 0
0.4 0.15 0
0.45 0.15 0
0.4 0.2 0
0.45 0.2 0
0.45 0.15 0
0.5 0.15 0
0.45 0.2 0
0.5 0.2 0
0.5 0.15 0
0.55 0.15 0
0.5 0.2 0
0.55 0.2 0
0.55 0.15 0
0.6 0.15 0
0.55 0.2 0
0.6 0.2 0
0.6 0.15 0
0.65 0.15 0
0.6 0.2 0
0.65 0.2 0
0.65 0.15 0
0.7 0.15 0
0.65 0.2 0
0.7 0.2 0
0.7 0.15 0
0.75 0.15 0
0.7 0.2 0
0.75 0.2 0
0.75 0.15 0
0.8 0.15 0
0.75 0.2 0
0.8 0.2 0
0.8 0.15 0
0.85 0.15 0
0.8 0.2 0
0.85 0.2 0
0.85 0.15 0
0.9 0.15 0
0.85 0.2 0
0.9 0.2 0
0.9 0.15 0
0.95 0.15 0
0.9 0.2 0
0.95 0.2 0
0.95 0.15 0
1 0.15 0
0.95 0.2 0
1 0.2 0
1 0.15 0
1.05 0.15 0
1 0.2 0
1.05 0.2 0
1.05 0.15 0
1.1 0.15 0
1.05 0.2 0
1.1 0.2 0
1.1 0.15 0
1.15 0.15 0
1.1 0.2 0
1.15 0.2 0
1.15 0.15 0
1.2 0.15 0
1.15 0.2 0
1.2 0.2 0
1.2 0.15 0
1.25 0.15 0
1.2 0.2 0
1.25 0.2 0
1.25 0.15 0
1.3 0.15 0
1.25 0.2 0
1.3 0.2 0
1.3 0.15 0
1.35 0.15 0
1.3 0.2 0
1.35 0.2 0
1.35 0.15 0
1.4 0.15 0
1.35 0.2 0
1.4 0.2 0
1.4 0.15 0
1.45 0.15 0
1.4 0.2 0
1.45 0.2 0
1.45 0.15 0
1.5 0.15 0
1.45 0.2 0
1.5 0.2 0
1.5 0.15 0
1.55 0.15 0
1.5 0.2 0
1.55 0.2 0
1.55 0.15 0
1.6 0.15 0
1.55 0.2 0
1.6 0.2 0
1.6 0.15 0
1.65 0.15 0
1.6 0.2 0
1.65 0.2 0
1.65 0.15 0
1.7 0.15 0
1.65 0.2 0
1.7 0.2 0
1.7 0.15 0
1.75 0.15 0
1.7 0.2 0
1.75 0.2 0
1.75 0.15 0
1.8 0.15 0
1.75 0.2 0
1.8 0.2 0
1.8 0.15 0
1.85 0.15 0
1.8 0.2 0
1.85 0.2 0
1.85 0.15 0
1.9 0.15 0
1.85 0.2 0
1.9 0.2 0
1.9 0.15 0
1.95 0.15 0
1.9 0.2 0
1.95 0.2 0
1.95 0.15 0
2 0.15 0
1.95 0.2 0
2 0.2 0
0 0.2 0
0.05 0.2 0
0 0.25 0
0.05 0.25 0
0.05 0.2 0
0.1 0.2 0
0.05 0.25 0
0.1 0.25 0
0.1 0.2 0
0.15 0.2 0
0.1 0.25 0
0.15 0.25 0
0.15 0.2 0
0.2 0.2 0
0.15 0.25 0
0.2 0.25 0
0.2 0.2 0
0.25 0.2 0
0.2 0.25 0
0.25 0.25 0
0.25 0.2 0
0.3 0.2 0
0.25 0.25 0
0.3 0.25 0
0.3 0.2 0
0.35 0.2 0
0.3 0.25 0
0.35 0.25 0
0.35 0.2 0
0.4 0.2 0
0.35 0.25 0
0.4 0.25 0
0.4 0.2 0
0.45 0.2 0
0.4 0.25 0
0.45 0.25 0
0.45 0.2 0
0.5 0.2 0
0.45 0.25 0
0.5 0.25 0
0.5 0.2 0
0.55 0.2 0
0.5 0.25 0
0.55 0.25 0
0.55 0.2 0
0.6 0.2 0
0.55 0.25 0
0.6 0.25 0
0.6 0.2 0
0.65 0.2 0
0.6 0.25 0
0.65 0.25 0
0.65 0.2 0
0.7 0.2 0
0.65 0.25 0
0.7 0.25 0
0.7 0.2 0
0.75 0.2 0
0.7 0.25 0
0.75 0.25 0
0.75 0.2 0
0.8 0.2 0
0.75 0.25 0
0.8 0.25 0
0.8 0.2 0
0.85 0.2 0
0.8 0.25 0
0.85 0.25 0
0.85 0.2 0
0.9 0.2 0
0.85 0.25 0
0.9 0.25 0
0.9 0.2 0
0.95 0.2 0
0.9 0.25 0
0.95 0.25 0
0.95 0.2 0
1 0.2 0
0.95 0.25 0
1 0.25 0
1 0.2 0
1.05 0.2 0
1 0.25 0
1.05 0.25 0
1.05 0.2 0
1.1 0.2 0
1.05 0.25 0
1.1 0.25 0
1.1 0.2 0
1.15 0.2 0
1.1 0.25 0
1.15 0.25 0
1.15 0.2 0
1.2 0.2 0
1.15 0.25 0
1.2 0.25 0
1.2 0.2 0
1.25 0.2 0
1.2 0.25 0
1.25 0.25 0
1.25 0.2 0
1.3 0.2 0
1.25 0.25 0
1.3 0.25 0
1.3 0.2 0
1.35 0.2 0
1.3 0.25 0
1.35 0.25 0
1.35 0.2 0
1.4 0.2 0
1.35 0.25 0
1.4 0.25 0
1.4 0.2 0
1.45 0.2 0
1.4 0.25 0
1.45 0.25 0
1.45 0.2 0
1.5 0.2 0
1.45 0.25 0
1.5 0.25 0
1.5 0.2 0
1.55 0.2 0
1.5 0.25 0
1.55 0.25 0
1.55 0.2 0
1.6 0.2 0
1.55 0.25 0
1.6 0.25 0
1.6 0.2 0
1.65 0.2 0
1.6 0.25 0
1.65 0.25 0
1.65 0.2 0
1.7 0.2 0
1.65 0.25 0
1.7 0.25 0
1.7 0.2 0
1.75 0.2 0
1.7 0.25 0
1.75 0.25 0
1.75 0.2 0
1.8 0.2 0
1.75 0.25 0
1.8 0.25 0
1.8 0.2 0
1.85 0.2 0
1.8 0.25 0
1.85 0.25 0
1.85 0.2 0
1.9 0.2 0
1.85 0.25 0
1.9 0.25 0
1.9 0.2 0
1.95 0.2 0
1.9 0.25 0
1.95 0.25 0
1.95 0.2 0
2 0.2 0
1.95 0.25 0
2 0.25 0
0 0.25 0
0.05 0.25 0
0 0.3 0
0.05 0.3 0
0.05 0.25 0
0.1 0.25 0
0.05 0.3 0
0.1 0.3 0
0.1 0.25 0
0.15 0.25 0
0.1 0.3 0
0.15 0.3 0
0.15 0.25 0
0.2 0.25 0
0.15 0.3 0
0.2 0.3 0
0.2 0.25 0
0.25 0.25 0
0.2 0.3 0
0.25 0.3 0
0.25 0.25 0
0.3 0.25 0
0.25 0.3 0
0.3 0.3 0
0.3 0.25 0
0.35 0.25 0
0.3 0.3 0
0.35 0.3 0
0.35 0.25 0
0.4 0.25 0
0.35 0.3 0
0.4 0.3 0
0.4 0.25 0
0.45 0.25 0
0.4 0.3 0
0.45 0.3 0
0.45 0.25 0
0.5 0.25 0
0.45 0.3 0
0.5 0.3 0
0.5 0.25 0
0.55 0.25 0
0.5 0.3 0
0.55 0.3 0
0.55 0.25 0
0.6 0.25 0
0.55 0.3 0
0.6 0.3 0
0.6 0.25 0
0.65 0.25 0
0.6 0.3 0
0.65 0.3 0
0.65 0.25 0
0.7 0.25 0
0.65 0.3 0
0.7 0.3 0
0.7 0.25 0
0.75 0.25 0
0.7 0.3 0
0.75 0.3 0
0.75 0.25 0
0.8 0.25 0
0.75 0.3 0
0.8 0.3 0
0.8 0.25 0
0.85 0.25 0
0.8 0.3 0
0.85 0.3 0
0.85 0.25 0
0.9 0.25 0
0.85 0.3 0
0.9 0.3 0
0.9 0.25 0
0.95 0.25 0
0.9 0.3 0
0.95 0.3 0
0.95 0.25 0
1 0.25 0
0.95 0.3 0
1 0.3 0
1 0.25 0
1.05 0.25 0
1 0.3 0
1.05 0.3 0
1.05 0.25 0
1.1 0.25 0
1.05 0.3 0
1.1 0.3 0
1.1 0.25 0
1.15 0.25 0
1.1 0.3 0
1.15 0.3 0
1.15 0.25 0
1.2 0.25 0
1.15 0.3 0
1.2 0.3 0
1.2 0.25 0
1.25 0.25 0
1.2 0.3 0
1.25 0.3 0
1.25 0.25 0
1.3 0.25 0
1.25 0.3 0
1.3 0.3 0
1.3 0.25 0
1.35 0.25 0
1.3 0.3 0
1.35 0.3 0
1.35 0.25 0
1.4 0.25 0
1.35 0.3 0
1.4 0.3 0
1.4 0.25 0
1.45 0.25 0
1.4 0.3 0
1.45 0.3 0
1.45 0.25 0
1.5 0.25 0
[...]
POINT_DATA 3200
SCALARS x_displacement double 1
LOOKUP_TABLE default
0 -1.6841 0 -0.987133 -1.6841 -2.9017 -0.987133 -2.01229 -2.9017 -3.88832 -2.01229 -2.86852 -3.88832 -4.71461 -2.86852 -3.60559 -4.71461 -5.44271 -3.60559 -4.25957 -5.44271 -6.14061 -4.25957 -4.85117 -6.14061 -6.85792 -4.85117 -5.42566 -6.85792 -7.60277 -5.42566 -6.03988 -7.60277 -8.3607 -6.03988 -6.69887 -8.3607 -9.11895 -6.69887 -7.38502 -9.11895 -9.86951 -7.38502 -8.08455 -9.86951 -10.6044 -8.08455 -8.78817 -10.6044 -11.3187 -8.78817 -9.49305 -11.3187 -12.013 -9.49305 -10.1973 -12.013 -12.6907 -10.1973 -10.8986 -12.6907 -13.3562 -10.8986 -11.5932 -13.3562 -14.0137 -11.5932 -12.278 -14.0137 -14.6678 -12.278 -12.9497 -14.6678 -15.324 -12.9497 -13.6047 -15.324 -15.9893 -13.6047 -14.2404 -15.9893 -16.6713 -14.2404 -14.8538 -16.6713 -17.3742 -14.8538 -15.4398 -17.3742 -18.0885 -15.4398 -15.9887 -18.0885 -18.7813 -15.9887 -16.4891 -18.7813 -19.3881 -16.4891 -16.9315 -19.3881 -19.8213 -16.9315 -17.3014 -19.8213 -20.0674 -17.3014 -17.6221 -20.0674 -20.2352 -17.6221 -17.9702 -20.2352 -20.5228 -17.9702 -18.2346 -20.5228 -20.5457 -18.2346 -18.5653 -20.5457 -20.7343 -18.5653 -18.9289 -20.7343 -21.6321 -18.9289 -18.7261 -21.6321 -22.0401 -18.7261 -19.1189 -22.0401 -22.252 -19.1189 -19.4293 -22.252 -22.3935 -19.4293 -19.6165 -22.3935 -22.4747 -19.6165 -19.804 -22.4747 -22.5289 -19.804 -19.9162 -22.5289 -22.5422 -19.9162 -19.9734 -22.5422 -22.5336 -19.9734 -19.9977 -22.5336 -22.5286 -19.9977 -20.0027 0 -0.987133 0 -0.844369 -0.987133 -2.01229 -0.844369 -1.47755 -2.01229 -2.86852 -1.47755 -2.09516 -2.86852 -3.60559 -2.09516 -2.69629 -3.60559 -4.25957 -2.69629 -3.21964 -4.25957 -4.85117 -3.21964 -3.64836 -4.85117 -5.42566 -3.64836 -3.99731 -5.42566 -6.03988 -3.99731 -4.3838 -6.03988 -6.69887 -4.3838 -4.97111 -6.69887 -7.38502 -4.97111 -5.63286 -7.38502 -8.08455 -5.63286 -6.29869 -8.08455 -8.78817 -6.29869 -6.97962 -8.78817 -9.49305 -6.97962 -7.67788 -9.49305 -10.1973 -7.67788 -8.39823 -10.1973 -10.8986 -8.39823 -9.1284 -10.8986 -11.5932 -9.1284 -9.85672 -11.5932 -12.278 -9.85672 -10.5728 -12.278 -12.9497 -10.5728 -11.2664 -12.9497 -13.6047 -11.2664 -11.9243 -13.6047 -14.2404 -11.9243 -12.5352 -14.2404 -14.8538 -12.5352 -13.0968 -14.8538 -15.4398 -13.0968 -13.5966 -15.4398 -15.9887 -13.5966 -14.0134 -15.9887 -16.4891 -14.0134 -14.3493 -16.4891 -16.9315 -14.3493 -14.6373 -16.9315 -17.3014 -14.6373 -14.9293 -17.3014 -17.6221 -14.9293 -15.2323 -17.6221 -17.9702 -15.2323 -15.5196 -17.9702 -18.2346 -15.5196 -15.8002 -18.2346 -18.5653 -15.8002 -16.1537 -18.5653 -18.9289 -16.1537 -16.3843 -18.9289 -18.7261 -16.3843 -16.5848 -18.7261 -19.1189 -16.5848 -16.5968 -19.1189 -19.4293 -16.5968 -16.5933 -19.4293 -19.6165 -16.5933 -17.0455 -19.6165 -19.804 -17.0455 -17.2751 -19.804 -19.9162 -17.2751 -17.3965 -19.9162 -19.9734 -17.3965 -17.4864 -19.9734 -19.9977 -17.4864 -17.5135 -19.9977 -20.0027 -17.5135 -17.5169 0 -0.844369 0 -0.604998 -0.844369 -1.47755 -0.604998 -0.907515 -1.47755 -2.09516 -0.907515 -1.50468 -2.09516 -2.69629 -1.50468 -1.94079 -2.69629 -3.21964 -1.94079 -2.33923 -3.21964 -3.64836 -2.33923 -2.7063 -3.64836 -3.99731 -2.7063 -3.02076 -3.99731 -4.3838 -3.02076 -3.3486 -4.3838 -4.97111 -3.3486 -3.67967 -4.97111 -5.63286 -3.67967 -4.06055 -5.63286 -6.29869 -4.06055 -4.58397 -6.29869 -6.97962 -4.58397 -5.16534 -6.97962 -7.67788 -5.16534 -5.88858 -7.67788 -8.39823 -5.88858 -6.6397 -8.39823 -9.1284 -6.6397 -7.41254 -9.1284 -9.85672 -7.41254 -8.18418 -9.85672 -10.5728 -8.18418 -8.94054 -10.5728 -11.2664 -8.94054 -9.66847 -11.2664 -11.9243 -9.66847 -10.3555 -11.9243 -12.5352 -10.3555 -11.0129 -12.5352 -13.0968 -11.0129 -11.5789 -13.0968 -13.5966 -11.5789 -11.9618 -13.5966 -14.0134 -11.9618 -12.1779 -14.0134 -14.3493 -12.1779 -12.283 -14.3493 -14.6373 -12.283 -12.3408 -14.6373 -14.9293 -12.3408 -12.4408 -14.9293 -15.2323 -12.4408 -12.7228 -15.2323 -15.5196 -12.7228 -13.0104 -15.5196 -15.8002 -13.0104 -13.3131 -15.8002 -16.1537 -13.3131 -13.6266 -16.1537 -16.3843 -13.6266 -13.9427 -16.3843 -16.5848 -13.9427 -14.2161 -16.5848 -16.5968 -14.2161 -14.5381 -16.5968 -16.5933 -14.5381 -14.8525 -16.5933 -17.0455 -14.8525 -14.6978 -17.0455 -17.2751 -14.6978 -14.8222 -17.2751 -17.3965 -14.8222 -15.0113 -17.3965 -17.4864 -15.0113 -15.0886 -17.4864 -17.5135 -15.0886 -15.1217 -17.5135 -17.5169 -15.1217 -15.1057 0 -0.604998 0 -0.0237678 -0.604998 -0.907515 -0.0237678 -0.538645 -0.907515 -1.50468 -0.538645 -0.90692 -1.50468 -1.94079 -0.90692 -1.16407 -1.94079 -2.33923 -1.16407 -1.60246 -2.33923 -2.7063 -1.60246 -1.95376 -2.7063 -3.02076 -1.95376 -2.30496 -3.02076 -3.3486 -2.30496 -2.66602 -3.3486 -3.67967 -2.66602 -3.03019 -3.67967 -4.06055 -3.03019 -3.47286 -4.06055 -4.58397 -3.47286 -3.84321 -4.58397 -5.16534 -3.84321 -4.26967 -5.16534 -5.88858 -4.26967 -5.01563 -5.88858 -6.6397 -5.01563 -5.35814 -6.6397 -7.41254 -5.35814 -5.594 -7.41254 -8.18418 -5.594 -6.8593 -8.18418 -8.94054 -6.8593 -7.6586 -8.94054 -9.66847 -7.6586 -8.47917 -9.66847 -10.3555 -8.47917 -9.38686 -10.3555 -11.0129 -9.38686 -9.93099 -11.0129 -11.5789 -9.93099 -10.1948 -11.5789 -11.9618 -10.1948 -10.3117 -11.9618 -12.1779 -10.3117 -10.3278 -12.1779 -12.283 -10.3278 -10.2725 -12.283 -12.3408 -10.2725 -10.1746 -12.3408 -12.4408 -10.1746 -10.0266 -12.4408 -12.7228 -10.0266 -10.1014 -12.7228 -13.0104 -10.1014 -10.4033 -13.0104 -13.3131 -10.4033 -10.8362 -13.3131 -13.6266 -10.8362 -11.1852 -13.6266 -13.9427 -11.1852 -11.5098 -13.9427 -14.2161 -11.5098 -11.8322 -14.2161 -14.5381 -11.8322 -12.2052 -14.5381 -14.8525 -12.2052 -12.4169 -14.8525 -14.6978 -12.4169 -12.6084 -14.6978 -14.8222 -12.6084 -12.7776 -14.8222 -15.0113 -12.7776 -12.5095 -15.0113 -15.0886 -12.5095 -12.8577 -15.0886 -15.1217 -12.8577 -12.8587 -15.1217 -15.1057 -12.8587 -12.7613 0 -0.0237678 0 -0.716997 -0.0237678 -0.538645 -0.716997 -0.594514 -0.538645 -0.90692 -0.594514 -0.143016 -0.90692 -1.16407 -0.143016 -0.536564 -1.16407 -1.60246 -0.536564 -0.892637 -1.60246 -1.95376 -0.892637 -1.20821 -1.95376 -2.30496 -1.20821 -1.6094 -2.30496 -2.66602 -1.6094 -1.97083 -2.66602 -3.03019 -1.97083 -2.35639 -3.03019 -3.47286 -2.35639 -2.7484 -3.47286 -3.84321 -2.7484 -3.14788 -3.84321 -4.26967 -3.14788 -3.67432 -4.26967 -5.01563 -3.67432 -4.13983 -5.01563 -5.35814 -4.13983 -4.54678 -5.35814 -5.594 -4.54678 -5.23926 -5.594 -6.8593 -5.23926 -5.82762 -6.8593 -7.6586 -5.82762 -6.20065 -7.6586 -8.47917 -6.20065 -7.43974 -8.47917 -9.38686 -7.43974 -8.20682 -9.38686 -9.93099 -8.20682 -8.4091 -9.93099 -10.1948 -8.4091 -8.47748 -10.1948 -10.3117 -8.47748 -8.46854 -10.3117 -10.3278 -8.46854 -8.40495 -10.3278 -10.2725 -8.40495 -8.3021 -10.2725 -10.1746 -8.3021 -8.12725 -10.1746 -10.0266 -8.12725 -7.8433 -10.0266 -10.1014 -7.8433 -7.36475 -10.1014 -10.4033 -7.36475 -7.93183 -10.4033 -10.8362 -7.93183 -8.41621 -10.8362 -11.1852 -8.41621 -8.76103 -11.1852 -11.5098 -8.76103 -9.11717 -11.5098 -11.8322 -9.11717 -9.45961 -11.8322 -12.2052 -9.45961 -9.78685 -12.2052 -12.4169 -9.78685 -10.0934 -12.4169 -12.6084 -10.0934 -10.4 -12.6084 -12.7776 -10.4 -10.7193 -12.7776 -12.5095 -10.7193 -11.0364 -12.5095 -12.8577 -11.0364 -10.4328 -12.8577 -12.8587 -10.4328 -10.7606 -12.8587 -12.7613 -10.7606 -10.9111 0 -0.716997 0 -0.0930275 -0.716997 -0.594514 -0.0930275 -0.209895 -0.594514 -0.143016 -0.209895 -0.349998 -0.143016 -0.536564 -0.349998 -0.23356 -0.536564 -0.892637 -0.23356 -0.199113 -0.892637 -1.20821 -0.199113 -0.572347 -1.20821 -1.6094 -0.572347 -0.877198 -1.6094 -1.97083 -0.877198 -1.24994 -1.97083 -2.35639 -1.24994 -1.65699 -2.35639 -2.7484 -1.65699 -2.02496 -2.7484 -3.14788 -2.02496 -2.42322 -3.14788 -3.67432 -2.42322 -2.82704 -3.67432 -4.13983 -2.82704 -3.22508 -4.13983 -4.54678 -3.22508 -3.7127 -4.54678 -5.23926 -3.7127 -4.23186 -5.23926 -5.82762 -4.23186 -4.61823 -5.82762 -6.20065 -4.61823 -5.0974 -6.20065 -7.43974 -5.0974 -5.80479 -7.43974 -8.20682 -5.80479 -6.70866 -8.20682 -8.4091 -6.70866 -6.67461 -8.4091 -8.47748 -6.67461 -6.63277 -8.47748 -8.46854 -6.63277 -6.58031 -8.46854 -8.40495 -6.58031 -6.49658 -8.40495 -8.3021 -6.49658 -6.36784 -8.3021 -8.12725 -6.36784 -6.16871 -8.12725 -7.8433 -6.16871 -5.7657 -7.8433 -7.36475 -5.7657 -5.23065 -7.36475 -7.93183 -5.23065 -5.76753 -7.93183 -8.41621 -5.76753 -6.06049 -8.41621 -8.76103 -6.06049 -6.36794 -8.76103 -9.11717 -6.36794 -6.67533 -9.11717 -9.45961 -6.67533 -7.12107 -9.45961 -9.78685 -7.12107 -7.46974 -9.78685 -10.0934 -7.46974 -7.80595 -10.0934 -10.4 -7.80595 -8.15679 -10.4 -10.7193 -8.15679 -8.55968 -10.7193 -11.0364 -8.55968 -8.81373 -11.0364 -10.4328 -8.81373 -9.27565 -10.4328 -10.7606 -9.27565 -9.84536 -10.7606 -10.9111 -9.84536 -9.52494 0 -0.0930275 0 -0.0662277 -0.0930275 -0.209895 -0.0662277 -0.132598 -0.209895 -0.349998 -0.132598 -0.181895 -0.349998 -0.23356 -0.181895 -0.264917 -0.23356 -0.199113 -0.264917 -0.36356 -0.199113 -0.572347 -0.36356 0.00438431 -0.572347 -0.877198 0.00438431 -0.203501 -0.877198 -1.24994 -0.203501 -0.617835 -1.24994 -1.65699 -0.617835 -0.897126 -1.65699 -2.02496 -0.897126 -1.25535 -2.02496 -2.42322 -1.25535 -1.63973 -2.42322 -2.82704 -1.63973 -1.97844 -2.82704 -3.22508 -1.97844 -2.34141 -3.22508 -3.7127 -2.34141 -2.72084 -3.7127 -4.23186 -2.72084 -3.08472 -4.23186 -4.61823 -3.08472 -3.4611 -4.61823 -5.0974 -3.4611 -3.91988 -5.0974 -5.80479 -3.91988 -4.35255 -5.80479 -6.70866 -4.35255 -4.86993 -6.70866 -6.67461 -4.86993 -4.87712 -6.67461 -6.63277 -4.87712 -4.81234 -6.63277 -6.58031 -4.81234 -4.73843 -6.58031 -6.49658 -4.73843 -4.65453 -6.49658 -6.36784 -4.65453 -4.52459 -6.36784 -6.16871 -4.52459 -4.28967 -6.16871 -5.7657 -4.28967 -3.98214 -5.7657 -5.23065 -3.98214 -3.39206 -5.23065 -5.76753 -3.39206 -2.88939 -5.76753 -6.06049 -2.88939 -4.09606 -6.06049 -6.36794 -4.09606 -3.89364 -6.36794 -6.67533 -3.89364 -4.41221 -6.67533 -7.12107 -4.41221 -4.82456 -7.12107 -7.46974 -4.82456 -5.13099 -7.46974 -7.80595 -5.13099 -5.59243 -7.80595 -8.15679 -5.59243 -5.96919 -8.15679 -8.55968 -5.96919 -6.30276 -8.55968 -8.81373 -6.30276 -6.64946 -8.81373 -9.27565 -6.64946 -7.13191 -9.27565 -9.84536 -7.13191 -7.40779 -9.84536 -9.52494 -7.40779 -7.69688 0 -0.0662277 0 -0.0449826 -0.0662277 -0.132598 -0.0449826 -0.0767883 -0.132598 -0.181895 -0.0767883 -0.113504 -0.181895 -0.264917 -0.113504 -0.135932 -0.264917 -0.36356 -0.135932 -0.176843 -0.36356 0.00438431 -0.176843 -0.32307 0.00438431 -0.203501 -0.32307 -0.511161 -0.203501 -0.617835 -0.511161 0.0207787 -0.617835 -0.897126 0.0207787 -0.172437 -0.897126 -1.25535 -0.172437 -0.546489 -1.25535 -1.63973 -0.546489 -0.800033 -1.63973 -1.97844 -0.800033 -1.10917 -1.97844 -2.34141 -1.10917 -1.42875 -2.34141 -2.72084 -1.42875 -1.70456 -2.72084 -3.08472 -1.70456 -1.99447 -3.08472 -3.4611 -1.99447 -2.30363 -3.4611 -3.91988 -2.30363 -2.59817 -3.91988 -4.35255 -2.59817 -2.87269 -4.35255 -4.86993 -2.87269 -3.10131 -4.86993 -4.87712 -3.10131 -3.10958 -4.87712 -4.81234 -3.10958 -3.05226 -4.81234 -4.73843 -3.05226 -3.00766 -4.73843 -4.65453 -3.00766 -2.93809 -4.65453 -4.52459 -2.93809 -2.81564 -4.52459 -4.28967 -2.81564 -2.59102 -4.28967 -3.98214 -2.59102 -2.18825 -3.98214 -3.39206 -2.18825 -1.82242 -3.39206 -2.88939 -1.82242 -1.63385 -2.88939 -4.09606 -1.63385 -1.24395 -4.09606 -3.89364 -1.24395 -2.11337 -3.89364 -4.41221 -2.11337 -2.76771 -4.41221 -4.82456 -2.76771 -2.50054 -4.82456 -5.13099 -2.50054 -2.97117 -5.13099 -5.59243 -2.97117 -3.44308 -5.59243 -5.96919 -3.44308 -3.81692 -5.96919 -6.30276 -3.81692 -4.10569 -6.30276 -6.64946 -4.10569 -4.40801 -6.64946 -7.13191 -4.40801 -4.72566 -7.13191 -7.40779 -4.72566 -5.01727 -7.40779 -7.69688 -5.01727 -5.22134 0 -0.0449826 0 -0.021301 -0.0449826 -0.0767883 -0.021301 -0.0370556 -0.0767883 -0.113504 -0.0370556 -0.0489673 -0.113504 -0.135932 -0.0489673 -0.067267 -0.135932 -0.176843 -0.067267 -0.109772 -0.176843 -0.32307 -0.109772 -0.116221 -0.32307 -0.511161 -0.116221 -0.0736877 -0.511161 0.0207787 -0.0736877 -0.0639811 0.0207787 -0.172437 -0.0639811 -0.270752 -0.172437 -0.546489 -0.270752 0.191068 -0.546489 -0.800033 0.191068 -0.0037018 -0.800033 -1.10917 -0.0037018 -0.321401 -1.10917 -1.42875 -0.321401 -0.524067 -1.42875 -1.70456 -0.524067 -0.735619 -1.70456 -1.99447 -0.735619 -0.948753 -1.99447 -2.30363 -0.948753 -1.12854 -2.30363 -2.59817 -1.12854 -1.28265 -2.59817 -2.87269 -1.28265 -1.40295 -2.87269 -3.10131 -1.40295 -1.4613 -3.10131 -3.10958 -1.4613 -1.45763 -3.10958 -3.05226 -1.45763 -1.42367 -3.05226 -3.00766 -1.42367 -1.38604 -3.00766 -2.93809 -1.38604 -1.35241 -2.93809 -2.81564 -1.35241 -1.23675 -2.81564 -2.59102 -1.23675 -1.13234 -2.59102 -2.18825 -1.13234 -1.02286 -2.18825 -1.82242 -1.02286 -0.852693 -1.82242 -1.63385 -0.852693 -0.731177 -1.63385 -1.24395 -0.731177 -0.948051 -1.24395 -2.11337 -0.948051 -1.04712 -2.11337 -2.76771 -1.04712 -1.0995 -2.76771 -2.50054 -1.0995 -1.41628 -2.50054 -2.97117 -1.41628 -1.10503 -2.97117 -3.44308 -1.10503 -1.46662 -3.44308 -3.81692 -1.46662 -1.69811 -3.81692 -4.10569 -1.69811 -1.89088 -4.10569 -4.40801 -1.89088 -2.14579 -4.40801 -4.72566 -2.14579 -2.36822 -4.72566 -5.01727 -2.36822 -2.61198 -5.01727 -5.22134 -2.61198 -2.63292 0 -0.021301 0 -1.70779e-11 -0.021301 -0.0370556 -1.70779e-11 8.60495e-12 -0.0370556 -0.0489673 8.60495e-12 9.63241e-12 -0.0489673 -0.067267 9.63241e-12 -3.78643e-12 -0.067267 -0.109772 -3.78643e-12 1.62821e-11 -0.109772 -0.116221 1.62821e-11 -3.68839e-12 -0.116221 -0.0736877 -3.68839e-12 -7.05409e-12 -0.0736877 -0.0639811 -7.05409e-12 3.21264e-12 -0.0639811 -0.270752 3.21264e-12 -4.59957e-11 -0.270752 0.191068 -4.59957e-11 -7.64203e-13 0.191068 -0.0037018 -7.64203e-13 -6.94026e-12 -0.0037018 -0.321401 -6.94026e-12 -5.5945e-12 -0.321401 -0.524067 -5.5945e-12 -1.30671e-12 -0.524067 -0.735619 -1.30671e-12 -2.30912e-13 -0.735619 -0.948753 -2.30912e-13 5.47926e-13 -0.948753 -1.12854 5.47926e-13 1.3399e-12 -1.12854 -1.28265 1.3399e-12 2.05678e-12 -1.28265 -1.40295 2.05678e-12 2.28262e-12 -1.40295 -1.4613 2.28262e-12 2.16318e-12 -1.4613 -1.45763 2.16318e-12 1.56322e-12 -1.45763 -1.42367 1.56322e-12 1.09317e-12 -1.42367 -1.38604 1.09317e-12 8.51271e-13 -1.38604 -1.35241 8.51271e-13 2.06022e-12 -1.35241 -1.23675 2.06022e-12 2.06988e-11 -1.23675 -1.13234 2.06988e-11 -7.28444e-10 -1.13234 -1.02286 -7.28444e-10 1.10088e-09 -1.02286 -0.852693 1.10088e-09 5.88361e-10 -0.852693 -0.731177 5.88361e-10 2.13732e-10 -0.731177 -0.948051 2.13732e-10 6.14814e-10 -0.948051 -1.04712 6.14814e-10 -3.48635e-10 -1.04712 -1.0995 -3.48635e-10 1.35123e-10 -1.0995 -1.41628 1.35123e-10 1.8062e-10 -1.41628 -1.10503 1.8062e-10 -2.25214e-10 -1.10503 -1.46662 -2.25214e-10 -1.64362e-11 -1.46662 -1.69811 -1.64362e-11 9.84046e-12 -1.69811 -1.89088 9.84046e-12 1.10221e-11 -1.89088 -2.14579 1.10221e-11 9.77239e-12 -2.14579 -2.36822 9.77239e-12 8.42803e-12 -2.36822 -2.61198 8.42803e-12 7.5469e-12 -2.61198 -2.63292 7.5469e-12 7.0273e-12 0 -1.70779e-11 0 0.021301 -1.70779e-11 8.60495e-12 0.021301 0.0370556 8.60495e-12 9.63241e-12 0.0370556 0.0489673 9.63241e-12 -3.78643e-12 0.0489673 0.067267 -3.78643e-12 1.62821e-11 0.067267 0.109772 1.62821e-11 -3.68839e-12 0.109772 0.116221 -3.68839e-12 -7.05409e-12 0.116221 0.0736877 -7.05409e-12 3.21264e-12 0.0736877 0.0639811 3.21264e-12 -4.59957e-11 0.0639811 0.270752 -4.59957e-11 -7.64203e-13 0.270752 -0.191068 -7.64203e-13 -6.94026e-12 -0.191068 0.0037018 -6.94026e-12 -5.5945e-12 0.0037018 0.321401 -5.5945e-12 -1.30671e-12 0.321401 0.524067 -1.30671e-12 -2.30912e-13 0.524067 0.735619 -2.30912e-13 5.47926e-13 0.735619 0.948753 5.47926e-13 1.3399e-12 0.948753 1.12854 1.3399e-12 2.05678e-12 1.12854 1.28265 2.05678e-12 2.28262e-12 1.28265 1.40295 2.28262e-12 2.16318e-12 1.40295 1.4613 2.16318e-12 1.56322e-12 1.4613 1.45763 1.56322e-12 1.09317e-12 1.45763 1.42367 1.09317e-12 8.51271e-13 1.42367 1.38604 8.51271e-13 2.06022e-12 1.38604 1.35241 2.06022e-12 2.06988e-11 1.35241 1.23675 2.06988e-11 -7.28444e-10 1.23675 1.13234 -7.28444e-10 1.10088e-09 1.13234 1.02286 1.10088e-09 5.88361e-10 1.02286 0.852693 5.88361e-10 2.13732e-10 0.852693 0.731177 2.13732e-10 6.14814e-10 0.731177 0.948051 6.14814e-10 -3.48635e-10 0.948051 1.04712 -3.48635e-10 1.35123e-10 1.04712 1.0995 1.35123e-10 1.8062e-10 1.0995 1.41628 1.8062e-10 -2.25214e-10 1.41628 1.10503 -2.25214e-10 -1.64362e-11 1.10503 1.46662 -1.64362e-11 9.84046e-12 1.46662 1.69811 9.84046e-12 1.10221e-11 1.69811 1.89088 1.10221e-11 9.77239e-12 1.89088 2.14579 9.77239e-12 8.42803e-12 2.14579 2.36822 8.42803e-12 7.5469e-12 2.36822 2.61198 7.5469e-12 7.0273e-12 2.61198 2.63292 0 0.021301 0 0.0449826 0.021301 0.0370556 0.0449826 0.0767883 0.0370556 0.0489673 0.0767883 0.113504 0.0489673 0.067267 0.113504 0.135932 0.067267 0.109772 0.135932 0.176843 0.109772 0.116221 0.176843 0.32307 0.116221 0.0736877 0.32307 0.511161 0.0736877 0.0639811 0.511161 -0.0207787 0.0639811 0.270752 -0.0207787 0.172437 0.270752 -0.191068 0.172437 0.546489 -0.191068 0.0037018 0.546489 0.800033 0.0037018 0.321401 0.800033 1.10917 0.321401 0.524067 1.10917 1.42875 0.524067 0.735619 1.42875 1.70456 0.735619 0.948753 1.70456 1.99447 0.948753 1.12854 1.99447 2.30363 1.12854 1.28265 2.30363 2.59817 1.28265 1.40295 2.59817 2.87269 1.40295 1.4613 2.87269 3.10131 1.4613 1.45763 3.10131 3.10958 1.45763 1.42367 3.10958 3.05226 1.42367 1.38604 3.05226 3.00766 1.38604 1.35241 3.00766 2.93809 1.35241 1.23675 2.93809 2.81564 1.23675 1.13234 2.81564 2.59102 1.13234 1.02286 2.59102 2.18825 1.02286 0.852693 2.18825 1.82242 0.852693 0.731177 1.82242 1.63385 0.731177 0.948051 1.63385 1.24395 0.948051 1.04712 1.24395 2.11337 1.04712 1.0995 2.11337 2.76771 1.0995 1.41628 2.76771 2.50054 1.41628 1.10503 2.50054 2.97117 1.10503 1.46662 2.97117 3.44308 1.46662 1.69811 3.44308 3.81692 1.69811 1.89088 3.81692 4.10569 1.89088 2.14579 4.10569 4.40801 2.14579 2.36822 4.40801 4.72566 2.36822 2.61198 4.72566 5.01727 2.61198 2.63292 5.01727 5.22134 0 0.0449826 0 0.0662277 0.0449826 0.0767883 0.0662277 0.132598 0.0767883 0.113504 0.132598 0.181895 0.113504 0.135932 0.181895 0.264917 0.135932 0.176843 0.264917 0.36356 0.176843 0.32307 0.36356 -0.00438431 0.32307 0.511161 -0.00438431 0.203501 0.511161 -0.0207787 0.203501 0.617835 -0.0207787 0.172437 0.617835 0.897126 0.172437 0.546489 0.897126 1.25535 0.546489 0.800033 1.25535 1.63973 0.800033 1.10917 1.63973 1.97844 1.10917 1.42875 1.97844 2.34141 1.42875 1.70456 2.34141 2.72084 1.70456 1.99447 2.72084 3.08472 1.99447 2.30363 3.08472 3.4611 2.30363 2.59817 3.4611 3.91988 2.59817 2.87269 3.91988 4.35255 2.87269 3.10131 4.35255 4.86993 3.10131 3.10958 4.86993 4.87712 3.10958 3.05226 4.87712 4.81234 3.05226 3.00766 4.81234 4.73843 3.00766 2.93809 4.73843 4.65453 2.93809 2.81564 4.65453 4.52459 2.81564 2.59102 4.52459 4.28967 2.59102 2.18825 4.28967 3.98214 2.18825 1.82242 3.98214 3.39206 1.82242 1.63385 3.39206 2.88939 1.63385 1.24395 2.88939 4.09606 1.24395 2.11337 4.09606 3.89364 2.11337 2.76771 3.89364 4.41221 2.76771 2.50054 4.41221 4.82456 2.50054 2.97117 4.82456 5.13099 2.97117 3.44308 5.13099 5.59243 3.44308 3.81692 5.59243 5.96919 3.81692 4.10569 5.96919 6.30276 4.10569 4.40801 6.30276 6.64946 4.40801 4.72566 6.64946 7.13191 4.72566 5.01727 7.13191 7.40779 5.01727 5.22134 7.40779 7.69688 0 0.0662277 0 0.0930275 0.0662277 0.132598 0.0930275 0.209895 0.132598 0.181895 0.209895 0.349998 0.181895 0.264917 0.349998 0.23356 0.264917 0.36356 0.23356 0.199113 0.36356 -0.00438431 0.199113 0.572347 -0.00438431 0.203501 0.572347 0.877198 0.203501 0.617835 0.877198 1.24994 0.617835 0.897126 1.24994 1.65699 0.897126 1.25535 1.65699 2.02496 1.25535 1.63973 2.02496 2.42322 1.63973 1.97844 2.42322 2.82704 1.97844 2.34141 2.82704 3.22508 2.34141 2.72084 3.22508 3.7127 2.72084 3.08472 3.7127 4.23186 3.08472 3.4611 4.23186 4.61823 3.4611 3.91988 4.61823 5.0974 3.91988 4.35255 5.0974 5.80479 4.35255 4.86993 5.80479 6.70866 4.86993 4.87712 6.70866 6.67461 4.87712 4.81234 6.67461 6.63277 4.81234 4.73843 6.63277 6.58031 4.73843 4.65453 6.58031 6.49658 4.65453 4.52459 6.49658 6.36784 4.52459 4.28967 6.36784 6.16871 4.28967 3.98214 6.16871 5.7657 3.98214 3.39206 5.7657 5.23065 3.39206 2.88939 5.23065 5.76753 2.88939 4.09606 5.76753 6.06049 4.09606 3.89364 6.06049 6.36