# vtk DataFile Version 3.0
#This file was generated by the deal.II library on 2015/9/1 at 17:12:53
ASCII
DATASET UNSTRUCTURED_GRID

POINTS 3200 double
0 0 0
0.05 0 0
0 0.05 0
0.05 0.05 0
0.05 0 0
0.1 0 0
0.05 0.05 0
0.1 0.05 0
0.1 0 0
0.15 0 0
0.1 0.05 0
0.15 0.05 0
0.15 0 0
0.2 0 0
0.15 0.05 0
0.2 0.05 0
0.2 0 0
0.25 0 0
0.2 0.05 0
0.25 0.05 0
0.25 0 0
0.3 0 0
0.25 0.05 0
0.3 0.05 0
0.3 0 0
0.35 0 0
0.3 0.05 0
0.35 0.05 0
0.35 0 0
0.4 0 0
0.35 0.05 0
0.4 0.05 0
0.4 0 0
0.45 0 0
0.4 0.05 0
0.45 0.05 0
0.45 0 0
0.5 0 0
0.45 0.05 0
0.5 0.05 0
0.5 0 0
0.55 0 0
0.5 0.05 0
0.55 0.05 0
0.55 0 0
0.6 0 0
0.55 0.05 0
0.6 0.05 0
0.6 0 0
0.65 0 0
0.6 0.05 0
0.65 0.05 0
0.65 0 0
0.7 0 0
0.65 0.05 0
0.7 0.05 0
0.7 0 0
0.75 0 0
0.7 0.05 0
0.75 0.05 0
0.75 0 0
0.8 0 0
0.75 0.05 0
0.8 0.05 0
0.8 0 0
0.85 0 0
0.8 0.05 0
0.85 0.05 0
0.85 0 0
0.9 0 0
0.85 0.05 0
0.9 0.05 0
0.9 0 0
0.95 0 0
0.9 0.05 0
0.95 0.05 0
0.95 0 0
1 0 0
0.95 0.05 0
1 0.05 0
1 0 0
1.05 0 0
1 0.05 0
1.05 0.05 0
1.05 0 0
1.1 0 0
1.05 0.05 0
1.1 0.05 0
1.1 0 0
1.15 0 0
1.1 0.05 0
1.15 0.05 0
1.15 0 0
1.2 0 0
1.15 0.05 0
1.2 0.05 0
1.2 0 0
1.25 0 0
1.2 0.05 0
1.25 0.05 0
1.25 0 0
1.3 0 0
1.25 0.05 0
1.3 0.05 0
1.3 0 0
1.35 0 0
1.3 0.05 0
1.35 0.05 0
1.35 0 0
1.4 0 0
1.35 0.05 0
1.4 0.05 0
1.4 0 0
1.45 0 0
1.4 0.05 0
1.45 0.05 0
1.45 0 0
1.5 0 0
1.45 0.05 0
1.5 0.05 0
1.5 0 0
1.55 0 0
1.5 0.05 0
1.55 0.05 0
1.55 0 0
1.6 0 0
1.55 0.05 0
1.6 0.05 0
1.6 0 0
1.65 0 0
1.6 0.05 0
1.65 0.05 0
1.65 0 0
1.7 0 0
1.65 0.05 0
1.7 0.05 0
1.7 0 0
1.75 0 0
1.7 0.05 0
1.75 0.05 0
1.75 0 0
1.8 0 0
1.75 0.05 0
1.8 0.05 0
1.8 0 0
1.85 0 0
1.8 0.05 0
1.85 0.05 0
1.85 0 0
1.9 0 0
1.85 0.05 0
1.9 0.05 0
1.9 0 0
1.95 0 0
1.9 0.05 0
1.95 0.05 0
1.95 0 0
2 0 0
1.95 0.05 0
2 0.05 0
0 0.05 0
0.05 0.05 0
0 0.1 0
0.05 0.1 0
0.05 0.05 0
0.1 0.05 0
0.05 0.1 0
0.1 0.1 0
0.1 0.05 0
0.15 0.05 0
0.1 0.1 0
0.15 0.1 0
0.15 0.05 0
0.2 0.05 0
0.15 0.1 0
0.2 0.1 0
0.2 0.05 0
0.25 0.05 0
0.2 0.1 0
0.25 0.1 0
0.25 0.05 0
0.3 0.05 0
0.25 0.1 0
0.3 0.1 0
0.3 0.05 0
0.35 0.05 0
0.3 0.1 0
0.35 0.1 0
0.35 0.05 0
0.4 0.05 0
0.35 0.1 0
0.4 0.1 0
0.4 0.05 0
0.45 0.05 0
0.4 0.1 0
0.45 0.1 0
0.45 0.05 0
0.5 0.05 0
0.45 0.1 0
0.5 0.1 0
0.5 0.05 0
0.55 0.05 0
0.5 0.1 0
0.55 0.1 0
0.55 0.05 0
0.6 0.05 0
0.55 0.1 0
0.6 0.1 0
0.6 0.05 0
0.65 0.05 0
0.6 0.1 0
0.65 0.1 0
0.65 0.05 0
0.7 0.05 0
0.65 0.1 0
0.7 0.1 0
0.7 0.05 0
0.75 0.05 0
0.7 0.1 0
0.75 0.1 0
0.75 0.05 0
0.8 0.05 0
0.75 0.1 0
0.8 0.1 0
0.8 0.05 0
0.85 0.05 0
0.8 0.1 0
0.85 0.1 0
0.85 0.05 0
0.9 0.05 0
0.85 0.1 0
0.9 0.1 0
0.9 0.05 0
0.95 0.05 0
0.9 0.1 0
0.95 0.1 0
0.95 0.05 0
1 0.05 0
0.95 0.1 0
1 0.1 0
1 0.05 0
1.05 0.05 0
1 0.1 0
1.05 0.1 0
1.05 0.05 0
1.1 0.05 0
1.05 0.1 0
1.1 0.1 0
1.1 0.05 0
1.15 0.05 0
1.1 0.1 0
1.15 0.1 0
1.15 0.05 0
1.2 0.05 0
1.15 0.1 0
1.2 0.1 0
1.2 0.05 0
1.25 0.05 0
1.2 0.1 0
1.25 0.1 0
1.25 0.05 0
1.3 0.05 0
1.25 0.1 0
1.3 0.1 0
1.3 0.05 0
1.35 0.05 0
1.3 0.1 0
1.35 0.1 0
1.35 0.05 0
1.4 0.05 0
1.35 0.1 0
1.4 0.1 0
1.4 0.05 0
1.45 0.05 0
1.4 0.1 0
1.45 0.1 0
1.45 0.05 0
1.5 0.05 0
1.45 0.1 0
1.5 0.1 0
1.5 0.05 0
1.55 0.05 0
1.5 0.1 0
1.55 0.1 0
1.55 0.05 0
1.6 0.05 0
1.55 0.1 0
1.6 0.1 0
1.6 0.05 0
1.65 0.05 0
1.6 0.1 0
1.65 0.1 0
1.65 0.05 0
1.7 0.05 0
1.65 0.1 0
1.7 0.1 0
1.7 0.05 0
1.75 0.05 0
1.7 0.1 0
1.75 0.1 0
1.75 0.05 0
1.8 0.05 0
1.75 0.1 0
1.8 0.1 0
1.8 0.05 0
1.85 0.05 0
1.8 0.1 0
1.85 0.1 0
1.85 0.05 0
1.9 0.05 0
1.85 0.1 0
1.9 0.1 0
1.9 0.05 0
1.95 0.05 0
1.9 0.1 0
1.95 0.1 0
1.95 0.05 0
2 0.05 0
1.95 0.1 0
2 0.1 0
0 0.1 0
0.05 0.1 0
0 0.15 0
0.05 0.15 0
0.05 0.1 0
0.1 0.1 0
0.05 0.15 0
0.1 0.15 0
0.1 0.1 0
0.15 0.1 0
0.1 0.15 0
0.15 0.15 0
0.15 0.1 0
0.2 0.1 0
0.15 0.15 0
0.2 0.15 0
0.2 0.1 0
0.25 0.1 0
0.2 0.15 0
0.25 0.15 0
0.25 0.1 0
0.3 0.1 0
0.25 0.15 0
0.3 0.15 0
0.3 0.1 0
0.35 0.1 0
0.3 0.15 0
0.35 0.15 0
0.35 0.1 0
0.4 0.1 0
0.35 0.15 0
0.4 0.15 0
0.4 0.1 0
0.45 0.1 0
0.4 0.15 0
0.45 0.15 0
0.45 0.1 0
0.5 0.1 0
0.45 0.15 0
0.5 0.15 0
0.5 0.1 0
0.55 0.1 0
0.5 0.15 0
0.55 0.15 0
0.55 0.1 0
0.6 0.1 0
0.55 0.15 0
0.6 0.15 0
0.6 0.1 0
0.65 0.1 0
0.6 0.15 0
0.65 0.15 0
0.65 0.1 0
0.7 0.1 0
0.65 0.15 0
0.7 0.15 0
0.7 0.1 0
0.75 0.1 0
0.7 0.15 0
0.75 0.15 0
0.75 0.1 0
0.8 0.1 0
0.75 0.15 0
0.8 0.15 0
0.8 0.1 0
0.85 0.1 0
0.8 0.15 0
0.85 0.15 0
0.85 0.1 0
0.9 0.1 0
0.85 0.15 0
0.9 0.15 0
0.9 0.1 0
0.95 0.1 0
0.9 0.15 0
0.95 0.15 0
0.95 0.1 0
1 0.1 0
0.95 0.15 0
1 0.15 0
1 0.1 0
1.05 0.1 0
1 0.15 0
1.05 0.15 0
1.05 0.1 0
1.1 0.1 0
1.05 0.15 0
1.1 0.15 0
1.1 0.1 0
1.15 0.1 0
1.1 0.15 0
1.15 0.15 0
1.15 0.1 0
1.2 0.1 0
1.15 0.15 0
1.2 0.15 0
1.2 0.1 0
1.25 0.1 0
1.2 0.15 0
1.25 0.15 0
1.25 0.1 0
1.3 0.1 0
1.25 0.15 0
1.3 0.15 0
1.3 0.1 0
1.35 0.1 0
1.3 0.15 0
1.35 0.15 0
1.35 0.1 0
1.4 0.1 0
1.35 0.15 0
1.4 0.15 0
1.4 0.1 0
1.45 0.1 0
1.4 0.15 0
1.45 0.15 0
1.45 0.1 0
1.5 0.1 0
1.45 0.15 0
1.5 0.15 0
1.5 0.1 0
1.55 0.1 0
1.5 0.15 0
1.55 0.15 0
1.55 0.1 0
1.6 0.1 0
1.55 0.15 0
1.6 0.15 0
1.6 0.1 0
1.65 0.1 0
1.6 0.15 0
1.65 0.15 0
1.65 0.1 0
1.7 0.1 0
1.65 0.15 0
1.7 0.15 0
1.7 0.1 0
1.75 0.1 0
1.7 0.15 0
1.75 0.15 0
1.75 0.1 0
1.8 0.1 0
1.75 0.15 0
1.8 0.15 0
1.8 0.1 0
1.85 0.1 0
1.8 0.15 0
1.85 0.15 0
1.85 0.1 0
1.9 0.1 0
1.85 0.15 0
1.9 0.15 0
1.9 0.1 0
1.95 0.1 0
1.9 0.15 0
1.95 0.15 0
1.95 0.1 0
2 0.1 0
1.95 0.15 0
2 0.15 0
0 0.15 0
0.05 0.15 0
0 0.2 0
0.05 0.2 0
0.05 0.15 0
0.1 0.15 0
0.05 0.2 0
0.1 0.2 0
0.1 0.15 0
0.15 0.15 0
0.1 0.2 0
0.15 0.2 0
0.15 0.15 0
0.2 0.15 0
0.15 0.2 0
0.2 0.2 0
0.2 0.15 0
0.25 0.15 0
0.2 0.2 0
0.25 0.2 0
0.25 0.15 0
0.3 0.15 0
0.25 0.2 0
0.3 0.2 0
0.3 0.15 0
0.35 0.15 0
0.3 0.2 0
0.35 0.2 0
0.35 0.15 0
0.4 0.15 0
0.35 0.2 0
0.4 0.2 0
0.4 0.15 0
0.45 0.15 0
0.4 0.2 0
0.45 0.2 0
0.45 0.15 0
0.5 0.15 0
0.45 0.2 0
0.5 0.2 0
0.5 0.15 0
0.55 0.15 0
0.5 0.2 0
0.55 0.2 0
0.55 0.15 0
0.6 0.15 0
0.55 0.2 0
0.6 0.2 0
0.6 0.15 0
0.65 0.15 0
0.6 0.2 0
0.65 0.2 0
0.65 0.15 0
0.7 0.15 0
0.65 0.2 0
0.7 0.2 0
0.7 0.15 0
0.75 0.15 0
0.7 0.2 0
0.75 0.2 0
0.75 0.15 0
0.8 0.15 0
0.75 0.2 0
0.8 0.2 0
0.8 0.15 0
0.85 0.15 0
0.8 0.2 0
0.85 0.2 0
0.85 0.15 0
0.9 0.15 0
0.85 0.2 0
0.9 0.2 0
0.9 0.15 0
0.95 0.15 0
0.9 0.2 0
0.95 0.2 0
0.95 0.15 0
1 0.15 0
0.95 0.2 0
1 0.2 0
1 0.15 0
1.05 0.15 0
1 0.2 0
1.05 0.2 0
1.05 0.15 0
1.1 0.15 0
1.05 0.2 0
1.1 0.2 0
1.1 0.15 0
1.15 0.15 0
1.1 0.2 0
1.15 0.2 0
1.15 0.15 0
1.2 0.15 0
1.15 0.2 0
1.2 0.2 0
1.2 0.15 0
1.25 0.15 0
1.2 0.2 0
1.25 0.2 0
1.25 0.15 0
1.3 0.15 0
1.25 0.2 0
1.3 0.2 0
1.3 0.15 0
1.35 0.15 0
1.3 0.2 0
1.35 0.2 0
1.35 0.15 0
1.4 0.15 0
1.35 0.2 0
1.4 0.2 0
1.4 0.15 0
1.45 0.15 0
1.4 0.2 0
1.45 0.2 0
1.45 0.15 0
1.5 0.15 0
1.45 0.2 0
1.5 0.2 0
1.5 0.15 0
1.55 0.15 0
1.5 0.2 0
1.55 0.2 0
1.55 0.15 0
1.6 0.15 0
1.55 0.2 0
1.6 0.2 0
1.6 0.15 0
1.65 0.15 0
1.6 0.2 0
1.65 0.2 0
1.65 0.15 0
1.7 0.15 0
1.65 0.2 0
1.7 0.2 0
1.7 0.15 0
1.75 0.15 0
1.7 0.2 0
1.75 0.2 0
1.75 0.15 0
1.8 0.15 0
1.75 0.2 0
1.8 0.2 0
1.8 0.15 0
1.85 0.15 0
1.8 0.2 0
1.85 0.2 0
1.85 0.15 0
1.9 0.15 0
1.85 0.2 0
1.9 0.2 0
1.9 0.15 0
1.95 0.15 0
1.9 0.2 0
1.95 0.2 0
1.95 0.15 0
2 0.15 0
1.95 0.2 0
2 0.2 0
0 0.2 0
0.05 0.2 0
0 0.25 0
0.05 0.25 0
0.05 0.2 0
0.1 0.2 0
0.05 0.25 0
0.1 0.25 0
0.1 0.2 0
0.15 0.2 0
0.1 0.25 0
0.15 0.25 0
0.15 0.2 0
0.2 0.2 0
0.15 0.25 0
0.2 0.25 0
0.2 0.2 0
0.25 0.2 0
0.2 0.25 0
0.25 0.25 0
0.25 0.2 0
0.3 0.2 0
0.25 0.25 0
0.3 0.25 0
0.3 0.2 0
0.35 0.2 0
0.3 0.25 0
0.35 0.25 0
0.35 0.2 0
0.4 0.2 0
0.35 0.25 0
0.4 0.25 0
0.4 0.2 0
0.45 0.2 0
0.4 0.25 0
0.45 0.25 0
0.45 0.2 0
0.5 0.2 0
0.45 0.25 0
0.5 0.25 0
0.5 0.2 0
0.55 0.2 0
0.5 0.25 0
0.55 0.25 0
0.55 0.2 0
0.6 0.2 0
0.55 0.25 0
0.6 0.25 0
0.6 0.2 0
0.65 0.2 0
0.6 0.25 0
0.65 0.25 0
0.65 0.2 0
0.7 0.2 0
0.65 0.25 0
0.7 0.25 0
0.7 0.2 0
0.75 0.2 0
0.7 0.25 0
0.75 0.25 0
0.75 0.2 0
0.8 0.2 0
0.75 0.25 0
0.8 0.25 0
0.8 0.2 0
0.85 0.2 0
0.8 0.25 0
0.85 0.25 0
0.85 0.2 0
0.9 0.2 0
0.85 0.25 0
0.9 0.25 0
0.9 0.2 0
0.95 0.2 0
0.9 0.25 0
0.95 0.25 0
0.95 0.2 0
1 0.2 0
0.95 0.25 0
1 0.25 0
1 0.2 0
1.05 0.2 0
1 0.25 0
1.05 0.25 0
1.05 0.2 0
1.1 0.2 0
1.05 0.25 0
1.1 0.25 0
1.1 0.2 0
1.15 0.2 0
1.1 0.25 0
1.15 0.25 0
1.15 0.2 0
1.2 0.2 0
1.15 0.25 0
1.2 0.25 0
1.2 0.2 0
1.25 0.2 0
1.2 0.25 0
1.25 0.25 0
1.25 0.2 0
1.3 0.2 0
1.25 0.25 0
1.3 0.25 0
1.3 0.2 0
1.35 0.2 0
1.3 0.25 0
1.35 0.25 0
1.35 0.2 0
1.4 0.2 0
1.35 0.25 0
1.4 0.25 0
1.4 0.2 0
1.45 0.2 0
1.4 0.25 0
1.45 0.25 0
1.45 0.2 0
1.5 0.2 0
1.45 0.25 0
1.5 0.25 0
1.5 0.2 0
1.55 0.2 0
1.5 0.25 0
1.55 0.25 0
1.55 0.2 0
1.6 0.2 0
1.55 0.25 0
1.6 0.25 0
1.6 0.2 0
1.65 0.2 0
1.6 0.25 0
1.65 0.25 0
1.65 0.2 0
1.7 0.2 0
1.65 0.25 0
1.7 0.25 0
1.7 0.2 0
1.75 0.2 0
1.7 0.25 0
1.75 0.25 0
1.75 0.2 0
1.8 0.2 0
1.75 0.25 0
1.8 0.25 0
1.8 0.2 0
1.85 0.2 0
1.8 0.25 0
1.85 0.25 0
1.85 0.2 0
1.9 0.2 0
1.85 0.25 0
1.9 0.25 0
1.9 0.2 0
1.95 0.2 0
1.9 0.25 0
1.95 0.25 0
1.95 0.2 0
2 0.2 0
1.95 0.25 0
2 0.25 0
0 0.25 0
0.05 0.25 0
0 0.3 0
0.05 0.3 0
0.05 0.25 0
0.1 0.25 0
0.05 0.3 0
0.1 0.3 0
0.1 0.25 0
0.15 0.25 0
0.1 0.3 0
0.15 0.3 0
0.15 0.25 0
0.2 0.25 0
0.15 0.3 0
0.2 0.3 0
0.2 0.25 0
0.25 0.25 0
0.2 0.3 0
0.25 0.3 0
0.25 0.25 0
0.3 0.25 0
0.25 0.3 0
0.3 0.3 0
0.3 0.25 0
0.35 0.25 0
0.3 0.3 0
0.35 0.3 0
0.35 0.25 0
0.4 0.25 0
0.35 0.3 0
0.4 0.3 0
0.4 0.25 0
0.45 0.25 0
0.4 0.3 0
0.45 0.3 0
0.45 0.25 0
0.5 0.25 0
0.45 0.3 0
0.5 0.3 0
0.5 0.25 0
0.55 0.25 0
0.5 0.3 0
0.55 0.3 0
0.55 0.25 0
0.6 0.25 0
0.55 0.3 0
0.6 0.3 0
0.6 0.25 0
0.65 0.25 0
0.6 0.3 0
0.65 0.3 0
0.65 0.25 0
0.7 0.25 0
0.65 0.3 0
0.7 0.3 0
0.7 0.25 0
0.75 0.25 0
0.7 0.3 0
0.75 0.3 0
0.75 0.25 0
0.8 0.25 0
0.75 0.3 0
0.8 0.3 0
0.8 0.25 0
0.85 0.25 0
0.8 0.3 0
0.85 0.3 0
0.85 0.25 0
0.9 0.25 0
0.85 0.3 0
0.9 0.3 0
0.9 0.25 0
0.95 0.25 0
0.9 0.3 0
0.95 0.3 0
0.95 0.25 0
1 0.25 0
0.95 0.3 0
1 0.3 0
1 0.25 0
1.05 0.25 0
1 0.3 0
1.05 0.3 0
1.05 0.25 0
1.1 0.25 0
1.05 0.3 0
1.1 0.3 0
1.1 0.25 0
1.15 0.25 0
1.1 0.3 0
1.15 0.3 0
1.15 0.25 0
1.2 0.25 0
1.15 0.3 0
1.2 0.3 0
1.2 0.25 0
1.25 0.25 0
1.2 0.3 0
1.25 0.3 0
1.25 0.25 0
1.3 0.25 0
1.25 0.3 0
1.3 0.3 0
1.3 0.25 0
1.35 0.25 0
1.3 0.3 0
1.35 0.3 0
1.35 0.25 0
1.4 0.25 0
1.35 0.3 0
1.4 0.3 0
1.4 0.25 0
1.45 0.25 0
1.4 0.3 0
1.45 0.3 0
1.45 0.25 0
1.5 0.25 0
[...]
POINT_DATA 3200
SCALARS x_displacement double 1
LOOKUP_TABLE default
0 -1.7147 0 -0.997411 -1.7147 -2.95279 -0.997411 -2.03471 -2.95279 -3.95196 -2.03471 -2.89875 -3.95196 -4.78902 -2.89875 -3.63807 -4.78902 -5.5424 -3.63807 -4.29611 -5.5424 -6.28627 -4.29611 -4.91426 -6.28627 -7.04892 -4.91426 -5.54991 -7.04892 -7.82801 -5.54991 -6.22475 -7.82801 -8.61646 -6.22475 -6.92668 -8.61646 -9.40767 -6.92668 -7.64344 -9.40767 -10.1938 -7.64344 -8.3655 -10.1938 -10.9673 -8.3655 -9.08913 -10.9673 -11.7254 -9.08913 -9.81247 -11.7254 -12.4697 -9.81247 -10.5339 -12.4697 -13.2038 -10.5339 -11.2508 -13.2038 -13.9325 -11.2508 -11.96 -13.9325 -14.6605 -11.96 -12.6588 -14.6605 -15.3919 -12.6588 -13.3441 -15.3919 -16.1293 -13.3441 -14.0129 -16.1293 -16.873 -14.0129 -14.6616 -16.873 -17.6211 -14.6616 -15.2853 -17.6211 -18.3665 -15.2853 -15.8778 -18.3665 -19.0905 -15.8778 -16.4335 -19.0905 -19.7511 -16.4335 -16.9482 -19.7511 -20.2783 -16.9482 -17.414 -20.2783 -20.6488 -17.414 -17.854 -20.6488 -20.9536 -17.854 -18.3632 -20.9536 -21.4274 -18.3632 -18.8919 -21.4274 -22.0497 -18.8919 -19.2117 -22.0497 -21.8988 -19.2117 -19.582 -21.8988 -21.9824 -19.582 -20.0131 -21.9824 -23.0254 -20.0131 -19.7575 -23.0254 -23.3871 -19.7575 -20.1846 -23.3871 -23.5527 -20.1846 -20.4857 -23.5527 -23.6581 -20.4857 -20.6192 -23.6581 -23.67 -20.6192 -20.7459 -23.67 -23.6571 -20.7459 -20.819 -23.6571 -23.6298 -20.819 -20.8502 -23.6298 -23.6062 -20.8502 -20.8597 -23.6062 -23.5991 -20.8597 -20.8619 0 -0.997411 0 -0.849291 -0.997411 -2.03471 -0.849291 -1.474 -2.03471 -2.89875 -1.474 -2.08842 -2.89875 -3.63807 -2.08842 -2.68742 -3.63807 -4.29611 -2.68742 -3.18821 -4.29611 -4.91426 -3.18821 -3.58953 -4.91426 -5.54991 -3.58953 -3.99759 -5.54991 -6.22475 -3.99759 -4.55743 -6.22475 -6.92668 -4.55743 -5.21168 -6.92668 -7.64344 -5.21168 -5.8729 -7.64344 -8.3655 -5.8729 -6.54081 -8.3655 -9.08913 -6.54081 -7.21823 -9.08913 -9.81247 -7.21823 -7.91132 -9.81247 -10.5339 -7.91132 -8.61533 -10.5339 -11.2508 -8.61533 -9.3205 -11.2508 -11.96 -9.3205 -10.0162 -11.96 -12.6588 -10.0162 -10.6922 -12.6588 -13.3441 -10.6922 -11.3391 -13.3441 -14.0129 -11.3391 -11.9497 -14.0129 -14.6616 -11.9497 -12.5179 -14.6616 -15.2853 -12.5179 -13.0392 -15.2853 -15.8778 -13.0392 -13.51 -15.8778 -16.4335 -13.51 -13.93 -16.4335 -16.9482 -13.93 -14.3224 -16.9482 -17.414 -14.3224 -14.7398 -17.414 -17.854 -14.7398 -15.1851 -17.854 -18.3632 -15.1851 -15.5925 -18.3632 -18.8919 -15.5925 -15.9804 -18.8919 -19.2117 -15.9804 -16.3847 -19.2117 -19.582 -16.3847 -16.8244 -19.582 -20.0131 -16.8244 -17.1109 -20.0131 -19.7575 -17.1109 -17.3802 -19.7575 -20.1846 -17.3802 -17.5159 -20.1846 -20.4857 -17.5159 -17.3626 -20.4857 -20.6192 -17.3626 -17.7583 -20.6192 -20.7459 -17.7583 -17.95 -20.7459 -20.819 -17.95 -18.057 -20.819 -20.8502 -18.057 -18.1277 -20.8502 -20.8597 -18.1277 -18.1432 -20.8597 -20.8619 -18.1432 -18.1509 0 -0.849291 0 -0.596439 -0.849291 -1.474 -0.596439 -0.846378 -1.474 -2.08842 -0.846378 -1.45172 -2.08842 -2.68742 -1.45172 -1.93903 -2.68742 -3.18821 -1.93903 -2.3421 -3.18821 -3.58953 -2.3421 -2.71586 -3.58953 -3.99759 -2.71586 -3.0946 -3.99759 -4.55743 -3.0946 -3.47378 -4.55743 -5.21168 -3.47378 -3.88253 -5.21168 -5.8729 -3.88253 -4.35519 -5.8729 -6.54081 -4.35519 -4.78364 -6.54081 -7.21823 -4.78364 -5.37708 -7.21823 -7.91132 -5.37708 -6.07738 -7.91132 -8.61533 -6.07738 -6.82784 -8.61533 -9.3205 -6.82784 -7.6132 -9.3205 -10.0162 -7.6132 -8.39436 -10.0162 -10.6922 -8.39436 -9.13 -10.6922 -11.3391 -9.13 -9.80192 -11.3391 -11.9497 -9.80192 -10.4062 -11.9497 -12.5179 -10.4062 -10.9347 -12.5179 -13.0392 -10.9347 -11.3672 -13.0392 -13.51 -11.3672 -11.6797 -13.51 -13.93 -11.6797 -11.8802 -13.93 -14.3224 -11.8802 -12.0176 -14.3224 -14.7398 -12.0176 -12.1442 -14.7398 -15.1851 -12.1442 -12.3293 -15.1851 -15.5925 -12.3293 -12.6659 -15.5925 -15.9804 -12.6659 -13.1427 -15.9804 -16.3847 -13.1427 -13.5446 -16.3847 -16.8244 -13.5446 -13.923 -16.8244 -17.1109 -13.923 -14.3201 -17.1109 -17.3802 -14.3201 -14.647 -17.3802 -17.5159 -14.647 -14.9421 -17.5159 -17.3626 -14.9421 -15.2541 -17.3626 -17.7583 -15.2541 -15.1417 -17.7583 -17.95 -15.1417 -15.2723 -17.95 -18.057 -15.2723 -15.4327 -18.057 -18.1277 -15.4327 -15.48 -18.1277 -18.1432 -15.48 -15.5184 -18.1432 -18.1509 -15.5184 -15.5269 0 -0.596439 0 0.0503913 -0.596439 -0.846378 0.0503913 -0.393902 -0.846378 -1.45172 -0.393902 -0.895282 -1.45172 -1.93903 -0.895282 -1.21319 -1.93903 -2.3421 -1.21319 -1.70422 -2.3421 -2.71586 -1.70422 -2.09171 -2.71586 -3.0946 -2.09171 -2.47692 -3.0946 -3.47378 -2.47692 -2.89637 -3.47378 -3.88253 -2.89637 -3.3875 -3.88253 -4.35519 -3.3875 -3.84318 -4.35519 -4.78364 -3.84318 -4.35663 -4.78364 -5.37708 -4.35663 -5.03559 -5.37708 -6.07738 -5.03559 -5.74539 -6.07738 -6.82784 -5.74539 -6.58502 -6.82784 -7.6132 -6.58502 -7.35203 -7.6132 -8.39436 -7.35203 -7.99742 -8.39436 -9.13 -7.99742 -8.55054 -9.13 -9.80192 -8.55054 -9.02809 -9.80192 -10.4062 -9.02809 -9.43203 -10.4062 -10.9347 -9.43203 -9.73981 -10.9347 -11.3672 -9.73981 -9.92442 -11.3672 -11.6797 -9.92442 -9.993 -11.6797 -11.8802 -9.993 -9.98368 -11.8802 -12.0176 -9.98368 -9.93151 -12.0176 -12.1442 -9.93151 -9.86764 -12.1442 -12.3293 -9.86764 -9.82279 -12.3293 -12.6659 -9.82279 -9.92782 -12.6659 -13.1427 -9.92782 -10.2601 -13.1427 -13.5446 -10.2601 -10.6608 -13.5446 -13.923 -10.6608 -11.1509 -13.923 -14.3201 -11.1509 -11.551 -14.3201 -14.647 -11.551 -11.9168 -14.647 -14.9421 -11.9168 -12.3064 -14.9421 -15.2541 -12.3064 -12.5377 -15.2541 -15.1417 -12.5377 -12.72 -15.1417 -15.2723 -12.72 -12.8305 -15.2723 -15.4327 -12.8305 -12.6197 -15.4327 -15.48 -12.6197 -13.005 -15.48 -15.5184 -13.005 -13.0712 -15.5184 -15.5269 -13.0712 -13.0109 0 0.0503913 0 -0.463008 0.0503913 -0.393902 -0.463008 -0.90768 -0.393902 -0.895282 -0.90768 -0.184747 -0.895282 -1.21319 -0.184747 -0.698019 -1.21319 -1.70422 -0.698019 -1.09456 -1.70422 -2.09171 -1.09456 -1.41274 -2.09171 -2.47692 -1.41274 -1.86172 -2.47692 -2.89637 -1.86172 -2.26705 -2.89637 -3.3875 -2.26705 -2.67949 -3.3875 -3.84318 -2.67949 -3.12178 -3.84318 -4.35663 -3.12178 -3.65388 -4.35663 -5.03559 -3.65388 -4.14863 -5.03559 -5.74539 -4.14863 -4.68299 -5.74539 -6.58502 -4.68299 -5.3597 -6.58502 -7.35203 -5.3597 -6.16528 -7.35203 -7.99742 -6.16528 -6.97825 -7.99742 -8.55054 -6.97825 -7.57687 -8.55054 -9.02809 -7.57687 -7.98253 -9.02809 -9.43203 -7.98253 -8.23178 -9.43203 -9.73981 -8.23178 -8.33926 -9.73981 -9.92442 -8.33926 -8.33454 -9.92442 -9.993 -8.33454 -8.25601 -9.993 -9.98368 -8.25601 -8.13023 -9.98368 -9.93151 -8.13023 -7.97071 -9.93151 -9.86764 -7.97071 -7.78888 -9.86764 -9.82279 -7.78888 -7.62249 -9.82279 -9.92782 -7.62249 -7.52487 -9.92782 -10.2601 -7.52487 -7.56914 -10.2601 -10.6608 -7.56914 -7.94347 -10.6608 -11.1509 -7.94347 -8.39954 -11.1509 -11.551 -8.39954 -8.87274 -11.551 -11.9168 -8.87274 -9.25972 -11.9168 -12.3064 -9.25972 -9.61801 -12.3064 -12.5377 -9.61801 -9.9853 -12.5377 -12.72 -9.9853 -10.3201 -12.72 -12.8305 -10.3201 -10.6545 -12.8305 -12.6197 -10.6545 -11.018 -12.6197 -13.005 -11.018 -10.7286 -13.005 -13.0712 -10.7286 -10.7915 -13.0712 -13.0109 -10.7915 -10.9119 0 -0.463008 0 -0.160737 -0.463008 -0.90768 -0.160737 -0.290154 -0.90768 -0.184747 -0.290154 -0.691151 -0.184747 -0.698019 -0.691151 -0.62875 -0.698019 -1.09456 -0.62875 -0.455382 -1.09456 -1.41274 -0.455382 -0.860741 -1.41274 -1.86172 -0.860741 -1.19824 -1.86172 -2.26705 -1.19824 -1.55321 -2.26705 -2.67949 -1.55321 -1.97333 -2.67949 -3.12178 -1.97333 -2.36924 -3.12178 -3.65388 -2.36924 -2.77508 -3.65388 -4.14863 -2.77508 -3.20079 -4.14863 -4.68299 -3.20079 -3.69442 -4.68299 -5.3597 -3.69442 -4.17963 -5.3597 -6.16528 -4.17963 -4.7145 -6.16528 -6.97825 -4.7145 -5.36757 -6.97825 -7.57687 -5.36757 -6.06884 -7.57687 -7.98253 -6.06884 -6.55614 -7.98253 -8.23178 -6.55614 -6.72869 -8.23178 -8.33926 -6.72869 -6.71986 -8.33926 -8.33454 -6.71986 -6.62754 -8.33454 -8.25601 -6.62754 -6.48621 -8.25601 -8.13023 -6.48621 -6.30577 -8.13023 -7.97071 -6.30577 -6.09058 -7.97071 -7.78888 -6.09058 -5.85289 -7.78888 -7.62249 -5.85289 -5.6176 -7.62249 -7.52487 -5.6176 -5.43759 -7.52487 -7.56914 -5.43759 -5.38867 -7.56914 -7.94347 -5.38867 -5.42972 -7.94347 -8.39954 -5.42972 -5.7189 -8.39954 -8.87274 -5.7189 -6.18395 -8.87274 -9.25972 -6.18395 -6.55234 -9.25972 -9.61801 -6.55234 -7.11128 -9.61801 -9.9853 -7.11128 -7.54721 -9.9853 -10.3201 -7.54721 -7.93783 -10.3201 -10.6545 -7.93783 -8.3669 -10.6545 -11.018 -8.3669 -8.63463 -11.018 -10.7286 -8.63463 -8.94891 -10.7286 -10.7915 -8.94891 -9.37132 -10.7915 -10.9119 -9.37132 -8.82705 0 -0.160737 0 -0.0914445 -0.160737 -0.290154 -0.0914445 -0.20342 -0.290154 -0.691151 -0.20342 -0.213563 -0.691151 -0.62875 -0.213563 -0.215451 -0.62875 -0.455382 -0.215451 -0.71842 -0.455382 -0.860741 -0.71842 -0.404034 -0.860741 -1.19824 -0.404034 -0.534857 -1.19824 -1.55321 -0.534857 -0.902374 -1.55321 -1.97333 -0.902374 -1.19651 -1.97333 -2.36924 -1.19651 -1.52494 -2.36924 -2.77508 -1.52494 -1.89797 -2.77508 -3.20079 -1.89797 -2.25542 -3.20079 -3.69442 -2.25542 -2.62882 -3.69442 -4.17963 -2.62882 -3.02483 -4.17963 -4.7145 -3.02483 -3.46971 -4.7145 -5.36757 -3.46971 -3.92322 -5.36757 -6.06884 -3.92322 -4.42335 -6.06884 -6.55614 -4.42335 -4.8836 -6.55614 -6.72869 -4.8836 -5.03572 -6.72869 -6.71986 -5.03572 -4.99518 -6.71986 -6.62754 -4.99518 -4.88243 -6.62754 -6.48621 -4.88243 -4.7273 -6.48621 -6.30577 -4.7273 -4.53799 -6.30577 -6.09058 -4.53799 -4.32718 -6.09058 -5.85289 -4.32718 -4.11232 -5.85289 -5.6176 -4.11232 -3.89542 -5.6176 -5.43759 -3.89542 -3.68314 -5.43759 -5.38867 -3.68314 -3.49308 -5.38867 -5.42972 -3.49308 -3.34635 -5.42972 -5.7189 -3.34635 -3.29194 -5.7189 -6.18395 -3.29194 -3.35239 -6.18395 -6.55234 -3.35239 -4.04195 -6.55234 -7.11128 -4.04195 -4.74427 -7.11128 -7.54721 -4.74427 -5.23476 -7.54721 -7.93783 -5.23476 -5.61767 -7.93783 -8.3669 -5.61767 -5.97851 -8.3669 -8.63463 -5.97851 -6.37097 -8.63463 -8.94891 -6.37097 -6.81691 -8.94891 -9.37132 -6.81691 -7.21575 -9.37132 -8.82705 -7.21575 -7.74952 0 -0.0914445 0 -0.0553248 -0.0914445 -0.20342 -0.0553248 -0.0767435 -0.20342 -0.213563 -0.0767435 -0.0882604 -0.213563 -0.215451 -0.0882604 -0.112167 -0.215451 -0.71842 -0.112167 -0.00461955 -0.71842 -0.404034 -0.00461955 0.224547 -0.404034 -0.534857 0.224547 -0.450172 -0.534857 -0.902374 -0.450172 -0.231335 -0.902374 -1.19651 -0.231335 -0.428537 -1.19651 -1.52494 -0.428537 -0.735157 -1.52494 -1.89797 -0.735157 -0.988069 -1.89797 -2.25542 -0.988069 -1.25391 -2.25542 -2.62882 -1.25391 -1.57811 -2.62882 -3.02483 -1.57811 -1.91999 -3.02483 -3.46971 -1.91999 -2.24753 -3.46971 -3.92322 -2.24753 -2.57021 -3.92322 -4.42335 -2.57021 -2.90334 -4.42335 -4.8836 -2.90334 -3.1917 -4.8836 -5.03572 -3.1917 -3.29775 -5.03572 -4.99518 -3.29775 -3.25947 -4.99518 -4.88243 -3.25947 -3.15914 -4.88243 -4.7273 -3.15914 -3.0265 -4.7273 -4.53799 -3.0265 -2.88218 -4.53799 -4.32718 -2.88218 -2.74718 -4.32718 -4.11232 -2.74718 -2.61116 -4.11232 -3.89542 -2.61116 -2.43841 -3.89542 -3.68314 -2.43841 -2.21208 -3.68314 -3.49308 -2.21208 -1.93677 -3.49308 -3.34635 -1.93677 -1.6599 -3.34635 -3.29194 -1.6599 -1.40215 -3.29194 -3.35239 -1.40215 -1.28489 -3.35239 -4.04195 -1.28489 -1.49236 -4.04195 -4.74427 -1.49236 -2.54724 -4.74427 -5.23476 -2.54724 -2.92616 -5.23476 -5.61767 -2.92616 -3.23864 -5.61767 -5.97851 -3.23864 -3.73631 -5.97851 -6.37097 -3.73631 -4.13992 -6.37097 -6.81691 -4.13992 -4.53531 -6.81691 -7.21575 -4.53531 -4.97749 -7.21575 -7.74952 -4.97749 -5.27377 0 -0.0553248 0 -0.0202125 -0.0553248 -0.0767435 -0.0202125 -0.0275911 -0.0767435 -0.0882604 -0.0275911 -0.0260786 -0.0882604 -0.112167 -0.0260786 0.000118001 -0.112167 -0.00461955 0.000118001 0.0319376 -0.00461955 0.224547 0.0319376 0.08927 0.224547 -0.450172 0.08927 0.488139 -0.450172 -0.231335 0.488139 0.235335 -0.231335 -0.428537 0.235335 0.02612 -0.428537 -0.735157 0.02612 -0.0259986 -0.735157 -0.988069 -0.0259986 -0.209402 -0.988069 -1.25391 -0.209402 -0.429106 -1.25391 -1.57811 -0.429106 -0.644312 -1.57811 -1.91999 -0.644312 -0.851157 -1.91999 -2.24753 -0.851157 -1.05864 -2.24753 -2.57021 -1.05864 -1.26217 -2.57021 -2.90334 -1.26217 -1.43726 -2.90334 -3.1917 -1.43726 -1.56698 -3.1917 -3.29775 -1.56698 -1.61264 -3.29775 -3.25947 -1.61264 -1.58502 -3.25947 -3.15914 -1.58502 -1.51906 -3.15914 -3.0265 -1.51906 -1.44512 -3.0265 -2.88218 -1.44512 -1.38584 -2.88218 -2.74718 -1.38584 -1.33805 -2.74718 -2.61116 -1.33805 -1.27468 -2.61116 -2.43841 -1.27468 -1.17119 -2.43841 -2.21208 -1.17119 -1.00898 -2.21208 -1.93677 -1.00898 -0.784329 -1.93677 -1.6599 -0.784329 -0.516501 -1.6599 -1.40215 -0.516501 -0.243014 -1.40215 -1.28489 -0.243014 0.0189181 -1.28489 -1.49236 0.0189181 0.304575 -1.49236 -2.54724 0.304575 -0.332599 -2.54724 -2.92616 -0.332599 -0.550553 -2.92616 -3.23864 -0.550553 -1.13036 -3.23864 -3.73631 -1.13036 -1.60889 -3.73631 -4.13992 -1.60889 -1.96521 -4.13992 -4.53531 -1.96521 -2.28624 -4.53531 -4.97749 -2.28624 -2.61298 -4.97749 -5.27377 -2.61298 -2.68363 0 -0.0202125 0 1.85494e-10 -0.0202125 -0.0275911 1.85494e-10 -1.26176e-10 -0.0275911 -0.0260786 -1.26176e-10 -8.43138e-11 -0.0260786 0.000118001 -8.43138e-11 -2.44911e-10 0.000118001 0.0319376 -2.44911e-10 -4.12986e-10 0.0319376 0.08927 -4.12986e-10 -3.32642e-10 0.08927 0.488139 -3.32642e-10 -1.263e-10 0.488139 0.235335 -1.263e-10 -1.24913e-10 0.235335 0.02612 -1.24913e-10 2.72435e-11 0.02612 -0.0259986 2.72435e-11 -1.0894e-12 -0.0259986 -0.209402 -1.0894e-12 -9.17014e-12 -0.209402 -0.429106 -9.17014e-12 -7.21236e-12 -0.429106 -0.644312 -7.21236e-12 -5.99584e-12 -0.644312 -0.851157 -5.99584e-12 -4.63973e-12 -0.851157 -1.05864 -4.63973e-12 -3.42477e-12 -1.05864 -1.26217 -3.42477e-12 -2.14541e-12 -1.26217 -1.43726 -2.14541e-12 -1.72485e-12 -1.43726 -1.56698 -1.72485e-12 -1.73462e-12 -1.56698 -1.61264 -1.73462e-12 -1.65189e-12 -1.61264 -1.58502 -1.65189e-12 -2.10833e-12 -1.58502 -1.51906 -2.10833e-12 -3.02329e-12 -1.51906 -1.44512 -3.02329e-12 -3.79226e-12 -1.44512 -1.38584 -3.79226e-12 -5.73341e-12 -1.38584 -1.33805 -5.73341e-12 -7.23251e-12 -1.33805 -1.27468 -7.23251e-12 -5.59609e-12 -1.27468 -1.17119 -5.59609e-12 -4.14007e-12 -1.17119 -1.00898 -4.14007e-12 -8.31655e-14 -1.00898 -0.784329 -8.31655e-14 4.19236e-12 -0.784329 -0.516501 4.19236e-12 8.26201e-12 -0.516501 -0.243014 8.26201e-12 1.97723e-11 -0.243014 0.0189181 1.97723e-11 1.27302e-11 0.0189181 0.304575 1.27302e-11 -2.6985e-11 0.304575 -0.332599 -2.6985e-11 -1.58334e-10 -0.332599 -0.550553 -1.58334e-10 -5.20628e-11 -0.550553 -1.13036 -5.20628e-11 1.74845e-11 -1.13036 -1.60889 1.74845e-11 5.1332e-12 -1.60889 -1.96521 5.1332e-12 2.43606e-12 -1.96521 -2.28624 2.43606e-12 1.44452e-12 -2.28624 -2.61298 1.44452e-12 1.74798e-13 -2.61298 -2.68363 1.74798e-13 -1.20217e-12 0 1.85494e-10 0 0.0202125 1.85494e-10 -1.26176e-10 0.0202125 0.0275911 -1.26176e-10 -8.43138e-11 0.0275911 0.0260786 -8.43138e-11 -2.44911e-10 0.0260786 -0.000118001 -2.44911e-10 -4.12986e-10 -0.000118001 -0.0319376 -4.12986e-10 -3.32642e-10 -0.0319376 -0.08927 -3.32642e-10 -1.263e-10 -0.08927 -0.488139 -1.263e-10 -1.24913e-10 -0.488139 -0.235335 -1.24913e-10 2.72435e-11 -0.235335 -0.02612 2.72435e-11 -1.0894e-12 -0.02612 0.0259986 -1.0894e-12 -9.17014e-12 0.0259986 0.209402 -9.17014e-12 -7.21236e-12 0.209402 0.429106 -7.21236e-12 -5.99584e-12 0.429106 0.644312 -5.99584e-12 -4.63973e-12 0.644312 0.851157 -4.63973e-12 -3.42477e-12 0.851157 1.05864 -3.42477e-12 -2.14541e-12 1.05864 1.26217 -2.14541e-12 -1.72485e-12 1.26217 1.43726 -1.72485e-12 -1.73462e-12 1.43726 1.56698 -1.73462e-12 -1.65189e-12 1.56698 1.61264 -1.65189e-12 -2.10833e-12 1.61264 1.58502 -2.10833e-12 -3.02329e-12 1.58502 1.51906 -3.02329e-12 -3.79226e-12 1.51906 1.44512 -3.79226e-12 -5.73341e-12 1.44512 1.38584 -5.73341e-12 -7.23251e-12 1.38584 1.33805 -7.23251e-12 -5.59609e-12 1.33805 1.27468 -5.59609e-12 -4.14007e-12 1.27468 1.17119 -4.14007e-12 -8.31655e-14 1.17119 1.00898 -8.31655e-14 4.19236e-12 1.00898 0.784329 4.19236e-12 8.26201e-12 0.784329 0.516501 8.26201e-12 1.97723e-11 0.516501 0.243014 1.97723e-11 1.27302e-11 0.243014 -0.0189181 1.27302e-11 -2.6985e-11 -0.0189181 -0.304575 -2.6985e-11 -1.58334e-10 -0.304575 0.332599 -1.58334e-10 -5.20628e-11 0.332599 0.550553 -5.20628e-11 1.74845e-11 0.550553 1.13036 1.74845e-11 5.1332e-12 1.13036 1.60889 5.1332e-12 2.43606e-12 1.60889 1.96521 2.43606e-12 1.44452e-12 1.96521 2.28624 1.44452e-12 1.74798e-13 2.28624 2.61298 1.74798e-13 -1.20217e-12 2.61298 2.68363 0 0.0202125 0 0.0553248 0.0202125 0.0275911 0.0553248 0.0767435 0.0275911 0.0260786 0.0767435 0.0882604 0.0260786 -0.000118001 0.0882604 0.112167 -0.000118001 -0.0319376 0.112167 0.00461955 -0.0319376 -0.08927 0.00461955 -0.224547 -0.08927 -0.488139 -0.224547 0.450172 -0.488139 -0.235335 0.450172 0.231335 -0.235335 -0.02612 0.231335 0.428537 -0.02612 0.0259986 0.428537 0.735157 0.0259986 0.209402 0.735157 0.988069 0.209402 0.429106 0.988069 1.25391 0.429106 0.644312 1.25391 1.57811 0.644312 0.851157 1.57811 1.91999 0.851157 1.05864 1.91999 2.24753 1.05864 1.26217 2.24753 2.57021 1.26217 1.43726 2.57021 2.90334 1.43726 1.56698 2.90334 3.1917 1.56698 1.61264 3.1917 3.29775 1.61264 1.58502 3.29775 3.25947 1.58502 1.51906 3.25947 3.15914 1.51906 1.44512 3.15914 3.0265 1.44512 1.38584 3.0265 2.88218 1.38584 1.33805 2.88218 2.74718 1.33805 1.27468 2.74718 2.61116 1.27468 1.17119 2.61116 2.43841 1.17119 1.00898 2.43841 2.21208 1.00898 0.784329 2.21208 1.93677 0.784329 0.516501 1.93677 1.6599 0.516501 0.243014 1.6599 1.40215 0.243014 -0.0189181 1.40215 1.28489 -0.0189181 -0.304575 1.28489 1.49236 -0.304575 0.332599 1.49236 2.54724 0.332599 0.550553 2.54724 2.92616 0.550553 1.13036 2.92616 3.23864 1.13036 1.60889 3.23864 3.73631 1.60889 1.96521 3.73631 4.13992 1.96521 2.28624 4.13992 4.53531 2.28624 2.61298 4.53531 4.97749 2.61298 2.68363 4.97749 5.27377 0 0.0553248 0 0.0914445 0.0553248 0.0767435 0.0914445 0.20342 0.0767435 0.0882604 0.20342 0.213563 0.0882604 0.112167 0.213563 0.215451 0.112167 0.00461955 0.215451 0.71842 0.00461955 -0.224547 0.71842 0.404034 -0.224547 0.450172 0.404034 0.534857 0.450172 0.231335 0.534857 0.902374 0.231335 0.428537 0.902374 1.19651 0.428537 0.735157 1.19651 1.52494 0.735157 0.988069 1.52494 1.89797 0.988069 1.25391 1.89797 2.25542 1.25391 1.57811 2.25542 2.62882 1.57811 1.91999 2.62882 3.02483 1.91999 2.24753 3.02483 3.46971 2.24753 2.57021 3.46971 3.92322 2.57021 2.90334 3.92322 4.42335 2.90334 3.1917 4.42335 4.8836 3.1917 3.29775 4.8836 5.03572 3.29775 3.25947 5.03572 4.99518 3.25947 3.15914 4.99518 4.88243 3.15914 3.0265 4.88243 4.7273 3.0265 2.88218 4.7273 4.53799 2.88218 2.74718 4.53799 4.32718 2.74718 2.61116 4.32718 4.11232 2.61116 2.43841 4.11232 3.89542 2.43841 2.21208 3.89542 3.68314 2.21208 1.93677 3.68314 3.49308 1.93677 1.6599 3.49308 3.34635 1.6599 1.40215 3.34635 3.29194 1.40215 1.28489 3.29194 3.35239 1.28489 1.49236 3.35239 4.04195 1.49236 2.54724 4.04195 4.74427 2.54724 2.92616 4.74427 5.23476 2.92616 3.23864 5.23476 5.61767 3.23864 3.73631 5.61767 5.97851 3.73631 4.13992 5.97851 6.37097 4.13992 4.53531 6.37097 6.81691 4.53531 4.97749 6.81691 7.21575 4.97749 5.27377 7.21575 7.74952 0 0.0914445 0 0.160737 0.0914445 0.20342 0.160737 0.290154 0.20342 0.213563 0.290154 0.691151 0.213563 0.215451 0.691151 0.62875 0.215451 0.71842 0.62875 0.455382 0.71842 0.404034 0.455382 0.860741 0.404034 0.534857 0.860741 1.19824 0.534857 0.902374 1.19824 1.55321 0.902374 1.19651 1.55321 1.97333 1.19651 1.52494 1.97333 2.36924 1.52494 1.89797 2.36924 2.77508 1.89797 2.25542 2.77508 3.20079 2.25542 2.62882 3.20079 3.69442 2.62882 3.02483 3.69442 4.17963 3.02483 3.46971 4.17963 4.7145 3.46971 3.92322 4.7145 5.36757 3.92322 4.42335 5.36757 6.06884 4.42335 4.8836 6.06884 6.55614 4.8836 5.03572 6.55614 6.72869 5.03572 4.99518 6.72869 6.71986 4.99518 4.88243 6.71986 6.62754 4.88243 4.7273 6.62754 6.48621 4.7273 4.53799 6.48621 6.30577 4.53799 4.32718 6.30577 6.09058 4.32718 4.11232 6.09058 5.85289 4.11232 3.89542 5.85289 5.6176 3.89542 3.68314 5.6176 5.43759 3.68314 3.49308 5.43759 5.38867 3.49308 3.34635 5.38867 5.42972 3.34635 3.29194 5.42972 5.7189 3.29194 3.35239 5