# vtk DataFile Version 3.0
#This file was generated by the deal.II library on 2015/8/30 at 10:13:44
ASCII
DATASET UNSTRUCTURED_GRID

POINTS 20 double
1 0 0
2 0 0
1 1 0
2 1 0
0 0 0
0.5 0 0
0 0.5 0
0.5 0.5 0
0.5 0 0
1 0 0
0.5 0.5 0
1 0.5 0
0 0.5 0
0.5 0.5 0
0 1 0
0.5 1 0
0.5 0.5 0
1 0.5 0
0.5 1 0
1 1 0

CELLS 5 25
4	0	1	3	2
4	4	5	7	6
4	8	9	11	10
4	12	13	15	14
4	16	17	19	18

CELL_TYPES 5
 9 9 9 9 9
POINT_DATA 20
SCALARS x_displacement double 1
LOOKUP_TABLE default
-61.7251 -87.1567 61.7251 87.1567 0 -30.0667 0 8.3884e-14 -30.0667 -61.7251 8.3884e-14 7.10543e-15 0 8.3884e-14 0 30.0667 8.3884e-14 7.10543e-15 30.0667 61.7251 
SCALARS y_displacement double 1
LOOKUP_TABLE default
-80.0348 -262.148 -80.0348 -262.148 0 -25.9392 0 -19.5817 -25.9392 -80.0348 -19.5817 -80.0348 0 -19.5817 0 -25.9392 -19.5817 -80.0348 -25.9392 -80.0348 
