# vtk DataFile Version 3.0
#This file was generated by the deal.II library on 2015/9/1 at 17:13: 2
ASCII
DATASET UNSTRUCTURED_GRID

POINTS 11912 double
0 0 0
0.05 0 0
0 0.05 0
0.05 0.05 0
0.05 0 0
0.1 0 0
0.05 0.05 0
0.1 0.05 0
0.1 0 0
0.15 0 0
0.1 0.05 0
0.15 0.05 0
0.15 0 0
0.2 0 0
0.15 0.05 0
0.2 0.05 0
0.2 0 0
0.25 0 0
0.2 0.05 0
0.25 0.05 0
0.25 0 0
0.3 0 0
0.25 0.05 0
0.3 0.05 0
0.3 0 0
0.35 0 0
0.3 0.05 0
0.35 0.05 0
0.35 0 0
0.4 0 0
0.35 0.05 0
0.4 0.05 0
0.4 0 0
0.45 0 0
0.4 0.05 0
0.45 0.05 0
0.45 0 0
0.5 0 0
0.45 0.05 0
0.5 0.05 0
0.5 0 0
0.55 0 0
0.5 0.05 0
0.55 0.05 0
0.55 0 0
0.6 0 0
0.55 0.05 0
0.6 0.05 0
0.6 0 0
0.65 0 0
0.6 0.05 0
0.65 0.05 0
0.65 0 0
0.7 0 0
0.65 0.05 0
0.7 0.05 0
0.7 0 0
0.75 0 0
0.7 0.05 0
0.75 0.05 0
0.75 0 0
0.8 0 0
0.75 0.05 0
0.8 0.05 0
0.8 0 0
0.85 0 0
0.8 0.05 0
0.85 0.05 0
0.85 0 0
0.9 0 0
0.85 0.05 0
0.9 0.05 0
0.9 0 0
0.95 0 0
0.9 0.05 0
0.95 0.05 0
0.95 0 0
1 0 0
0.95 0.05 0
1 0.05 0
1 0 0
1.05 0 0
1 0.05 0
1.05 0.05 0
1.05 0 0
1.1 0 0
1.05 0.05 0
1.1 0.05 0
1.1 0 0
1.15 0 0
1.1 0.05 0
1.15 0.05 0
1.15 0 0
1.2 0 0
1.15 0.05 0
1.2 0.05 0
1.2 0 0
1.25 0 0
1.2 0.05 0
1.25 0.05 0
1.25 0 0
1.3 0 0
1.25 0.05 0
1.3 0.05 0
0.1 0.05 0
0.15 0.05 0
0.1 0.1 0
0.15 0.1 0
0.15 0.05 0
0.2 0.05 0
0.15 0.1 0
0.2 0.1 0
0.2 0.05 0
0.25 0.05 0
0.2 0.1 0
0.25 0.1 0
0.25 0.05 0
0.3 0.05 0
0.25 0.1 0
0.3 0.1 0
0.2 0.1 0
0.25 0.1 0
0.2 0.15 0
0.25 0.15 0
0.25 0.1 0
0.3 0.1 0
0.25 0.15 0
0.3 0.15 0
0.85 0.45 0
0.9 0.45 0
0.85 0.5 0
0.9 0.5 0
0.9 0.45 0
0.95 0.45 0
0.9 0.5 0
0.95 0.5 0
1.45 0.45 0
1.5 0.45 0
1.45 0.5 0
1.5 0.5 0
1.9 0.45 0
1.95 0.45 0
1.9 0.5 0
1.95 0.5 0
1.95 0.45 0
2 0.45 0
1.95 0.5 0
2 0.5 0
0.65 0.5 0
0.7 0.5 0
0.65 0.55 0
0.7 0.55 0
0.85 0.5 0
0.9 0.5 0
0.85 0.55 0
0.9 0.55 0
0.9 0.5 0
0.95 0.5 0
0.9 0.55 0
0.95 0.55 0
1.9 0.5 0
1.95 0.5 0
1.9 0.55 0
1.95 0.55 0
1.95 0.5 0
2 0.5 0
1.95 0.55 0
2 0.55 0
0.2 0.85 0
0.25 0.85 0
0.2 0.9 0
0.25 0.9 0
0.25 0.85 0
0.3 0.85 0
0.25 0.9 0
0.3 0.9 0
0.1 0.9 0
0.15 0.9 0
0.1 0.95 0
0.15 0.95 0
0.15 0.9 0
0.2 0.9 0
0.15 0.95 0
0.2 0.95 0
0.2 0.9 0
0.25 0.9 0
0.2 0.95 0
0.25 0.95 0
0.25 0.9 0
0.3 0.9 0
0.25 0.95 0
0.3 0.95 0
0 0.95 0
0.05 0.95 0
0 1 0
0.05 1 0
0.05 0.95 0
0.1 0.95 0
0.05 1 0
0.1 1 0
0.1 0.95 0
0.15 0.95 0
0.1 1 0
0.15 1 0
0.15 0.95 0
0.2 0.95 0
0.15 1 0
0.2 1 0
0.2 0.95 0
0.25 0.95 0
0.2 1 0
0.25 1 0
0.25 0.95 0
0.3 0.95 0
0.25 1 0
0.3 1 0
0.3 0.95 0
0.35 0.95 0
0.3 1 0
0.35 1 0
0.35 0.95 0
0.4 0.95 0
0.35 1 0
0.4 1 0
0.4 0.95 0
0.45 0.95 0
0.4 1 0
0.45 1 0
0.45 0.95 0
0.5 0.95 0
0.45 1 0
0.5 1 0
0.5 0.95 0
0.55 0.95 0
0.5 1 0
0.55 1 0
0.55 0.95 0
0.6 0.95 0
0.55 1 0
0.6 1 0
0.6 0.95 0
0.65 0.95 0
0.6 1 0
0.65 1 0
0.65 0.95 0
0.7 0.95 0
0.65 1 0
0.7 1 0
0.7 0.95 0
0.75 0.95 0
0.7 1 0
0.75 1 0
0.75 0.95 0
0.8 0.95 0
0.75 1 0
0.8 1 0
0.8 0.95 0
0.85 0.95 0
0.8 1 0
0.85 1 0
0.85 0.95 0
0.9 0.95 0
0.85 1 0
0.9 1 0
0.9 0.95 0
0.95 0.95 0
0.9 1 0
0.95 1 0
0.95 0.95 0
1 0.95 0
0.95 1 0
1 1 0
1 0.95 0
1.05 0.95 0
1 1 0
1.05 1 0
1.05 0.95 0
1.1 0.95 0
1.05 1 0
1.1 1 0
1.1 0.95 0
1.15 0.95 0
1.1 1 0
1.15 1 0
1.15 0.95 0
1.2 0.95 0
1.15 1 0
1.2 1 0
1.2 0.95 0
1.25 0.95 0
1.2 1 0
1.25 1 0
1.25 0.95 0
1.3 0.95 0
1.25 1 0
1.3 1 0
1.3 0 0
1.325 0 0
1.3 0.025 0
1.325 0.025 0
1.325 0 0
1.35 0 0
1.325 0.025 0
1.35 0.025 0
1.3 0.025 0
1.325 0.025 0
1.3 0.05 0
1.325 0.05 0
1.325 0.025 0
1.35 0.025 0
1.325 0.05 0
1.35 0.05 0
1.35 0 0
1.375 0 0
1.35 0.025 0
1.375 0.025 0
1.375 0 0
1.4 0 0
1.375 0.025 0
1.4 0.025 0
1.35 0.025 0
1.375 0.025 0
1.35 0.05 0
1.375 0.05 0
1.375 0.025 0
1.4 0.025 0
1.375 0.05 0
1.4 0.05 0
1.4 0 0
1.425 0 0
1.4 0.025 0
1.425 0.025 0
1.425 0 0
1.45 0 0
1.425 0.025 0
1.45 0.025 0
1.4 0.025 0
1.425 0.025 0
1.4 0.05 0
1.425 0.05 0
1.425 0.025 0
1.45 0.025 0
1.425 0.05 0
1.45 0.05 0
1.45 0 0
1.475 0 0
1.45 0.025 0
1.475 0.025 0
1.475 0 0
1.5 0 0
1.475 0.025 0
1.5 0.025 0
1.45 0.025 0
1.475 0.025 0
1.45 0.05 0
1.475 0.05 0
1.475 0.025 0
1.5 0.025 0
1.475 0.05 0
1.5 0.05 0
1.5 0 0
1.525 0 0
1.5 0.025 0
1.525 0.025 0
1.525 0 0
1.55 0 0
1.525 0.025 0
1.55 0.025 0
1.5 0.025 0
1.525 0.025 0
1.5 0.05 0
1.525 0.05 0
1.525 0.025 0
1.55 0.025 0
1.525 0.05 0
1.55 0.05 0
1.55 0 0
1.575 0 0
1.55 0.025 0
1.575 0.025 0
1.575 0 0
1.6 0 0
1.575 0.025 0
1.6 0.025 0
1.55 0.025 0
1.575 0.025 0
1.55 0.05 0
1.575 0.05 0
1.575 0.025 0
1.6 0.025 0
1.575 0.05 0
1.6 0.05 0
1.6 0 0
1.625 0 0
1.6 0.025 0
1.625 0.025 0
1.625 0 0
1.65 0 0
1.625 0.025 0
1.65 0.025 0
1.6 0.025 0
1.625 0.025 0
1.6 0.05 0
1.625 0.05 0
1.625 0.025 0
1.65 0.025 0
1.625 0.05 0
1.65 0.05 0
1.65 0 0
1.675 0 0
1.65 0.025 0
1.675 0.025 0
1.675 0 0
1.7 0 0
1.675 0.025 0
1.7 0.025 0
1.65 0.025 0
1.675 0.025 0
1.65 0.05 0
1.675 0.05 0
1.675 0.025 0
1.7 0.025 0
1.675 0.05 0
1.7 0.05 0
1.7 0 0
1.725 0 0
1.7 0.025 0
1.725 0.025 0
1.725 0 0
1.75 0 0
1.725 0.025 0
1.75 0.025 0
1.7 0.025 0
1.725 0.025 0
1.7 0.05 0
1.725 0.05 0
1.725 0.025 0
1.75 0.025 0
1.725 0.05 0
1.75 0.05 0
1.75 0 0
1.775 0 0
1.75 0.025 0
1.775 0.025 0
1.775 0 0
1.8 0 0
1.775 0.025 0
1.8 0.025 0
1.75 0.025 0
1.775 0.025 0
1.75 0.05 0
1.775 0.05 0
1.775 0.025 0
1.8 0.025 0
1.775 0.05 0
1.8 0.05 0
1.8 0 0
1.825 0 0
1.8 0.025 0
1.825 0.025 0
1.825 0 0
1.85 0 0
1.825 0.025 0
1.85 0.025 0
1.8 0.025 0
1.825 0.025 0
1.8 0.05 0
1.825 0.05 0
1.825 0.025 0
1.85 0.025 0
1.825 0.05 0
1.85 0.05 0
1.85 0 0
1.875 0 0
1.85 0.025 0
1.875 0.025 0
1.875 0 0
1.9 0 0
1.875 0.025 0
1.9 0.025 0
1.85 0.025 0
1.875 0.025 0
1.85 0.05 0
1.875 0.05 0
1.875 0.025 0
1.9 0.025 0
1.875 0.05 0
1.9 0.05 0
1.9 0 0
1.925 0 0
1.9 0.025 0
1.925 0.025 0
1.925 0 0
1.95 0 0
1.925 0.025 0
1.95 0.025 0
1.9 0.025 0
1.925 0.025 0
1.9 0.05 0
1.925 0.05 0
1.925 0.025 0
1.95 0.025 0
1.925 0.05 0
1.95 0.05 0
1.95 0 0
1.975 0 0
1.95 0.025 0
1.975 0.025 0
1.975 0 0
2 0 0
1.975 0.025 0
2 0.025 0
1.95 0.025 0
1.975 0.025 0
1.95 0.05 0
1.975 0.05 0
1.975 0.025 0
2 0.025 0
1.975 0.05 0
2 0.05 0
0 0.05 0
0.025 0.05 0
0 0.075 0
0.025 0.075 0
0.025 0.05 0
0.05 0.05 0
0.025 0.075 0
0.05 0.075 0
0 0.075 0
0.025 0.075 0
0 0.1 0
0.025 0.1 0
0.025 0.075 0
0.05 0.075 0
0.025 0.1 0
0.05 0.1 0
0.05 0.05 0
0.075 0.05 0
0.05 0.075 0
0.075 0.075 0
0.075 0.05 0
0.1 0.05 0
0.075 0.075 0
0.1 0.075 0
0.05 0.075 0
0.075 0.075 0
0.05 0.1 0
0.075 0.1 0
0.075 0.075 0
0.1 0.075 0
0.075 0.1 0
0.1 0.1 0
0.3 0.05 0
0.325 0.05 0
0.3 0.075 0
0.325 0.075 0
0.325 0.05 0
0.35 0.05 0
0.325 0.075 0
0.35 0.075 0
0.3 0.075 0
0.325 0.075 0
0.3 0.1 0
0.325 0.1 0
0.325 0.075 0
0.35 0.075 0
0.325 0.1 0
0.35 0.1 0
0.35 0.05 0
0.375 0.05 0
0.35 0.075 0
0.375 0.075 0
0.375 0.05 0
0.4 0.05 0
0.375 0.075 0
0.4 0.075 0
0.35 0.075 0
0.375 0.075 0
0.35 0.1 0
0.375 0.1 0
0.375 0.075 0
0.4 0.075 0
0.375 0.1 0
0.4 0.1 0
0.4 0.05 0
0.425 0.05 0
0.4 0.075 0
0.425 0.075 0
0.425 0.05 0
0.45 0.05 0
0.425 0.075 0
0.45 0.075 0
0.4 0.075 0
0.425 0.075 0
0.4 0.1 0
0.425 0.1 0
0.425 0.075 0
0.45 0.075 0
0.425 0.1 0
0.45 0.1 0
0.45 0.05 0
0.475 0.05 0
0.45 0.075 0
0.475 0.075 0
0.475 0.05 0
0.5 0.05 0
0.475 0.075 0
0.5 0.075 0
0.45 0.075 0
0.475 0.075 0
0.45 0.1 0
0.475 0.1 0
0.475 0.075 0
0.5 0.075 0
0.475 0.1 0
0.5 0.1 0
0.5 0.05 0
0.525 0.05 0
0.5 0.075 0
0.525 0.075 0
0.525 0.05 0
0.55 0.05 0
0.525 0.075 0
0.55 0.075 0
0.5 0.075 0
0.525 0.075 0
0.5 0.1 0
0.525 0.1 0
0.525 0.075 0
0.55 0.075 0
0.525 0.1 0
0.55 0.1 0
0.55 0.05 0
0.575 0.05 0
0.55 0.075 0
0.575 0.075 0
0.575 0.05 0
0.6 0.05 0
0.575 0.075 0
0.6 0.075 0
0.55 0.075 0
0.575 0.075 0
0.55 0.1 0
0.575 0.1 0
0.575 0.075 0
0.6 0.075 0
0.575 0.1 0
0.6 0.1 0
0.6 0.05 0
0.625 0.05 0
0.6 0.075 0
0.625 0.075 0
0.625 0.05 0
0.65 0.05 0
0.625 0.075 0
0.65 0.075 0
0.6 0.075 0
0.625 0.075 0
0.6 0.1 0
0.625 0.1 0
0.625 0.075 0
0.65 0.075 0
0.625 0.1 0
0.65 0.1 0
0.65 0.05 0
0.675 0.05 0
0.65 0.075 0
0.675 0.075 0
0.675 0.05 0
0.7 0.05 0
0.675 0.075 0
0.7 0.075 0
0.65 0.075 0
0.675 0.075 0
0.65 0.1 0
0.675 0.1 0
0.675 0.075 0
0.7 0.075 0
0.675 0.1 0
0.7 0.1 0
0.7 0.05 0
0.725 0.05 0
0.7 0.075 0
0.725 0.075 0
0.725 0.05 0
0.75 0.05 0
0.725 0.075 0
0.75 0.075 0
0.7 0.075 0
0.725 0.075 0
0.7 0.1 0
0.725 0.1 0
0.725 0.075 0
0.75 0.075 0
0.725 0.1 0
0.75 0.1 0
0.75 0.05 0
0.775 0.05 0
0.75 0.075 0
0.775 0.075 0
0.775 0.05 0
0.8 0.05 0
0.775 0.075 0
0.8 0.075 0
0.75 0.075 0
0.775 0.075 0
0.75 0.1 0
0.775 0.1 0
0.775 0.075 0
0.8 0.075 0
0.775 0.1 0
0.8 0.1 0
0.8 0.05 0
0.825 0.05 0
0.8 0.075 0
0.825 0.075 0
0.825 0.05 0
0.85 0.05 0
0.825 0.075 0
0.85 0.075 0
0.8 0.075 0
0.825 0.075 0
0.8 0.1 0
0.825 0.1 0
0.825 0.075 0
0.85 0.075 0
0.825 0.1 0
0.85 0.1 0
0.85 0.05 0
0.875 0.05 0
0.85 0.075 0
0.875 0.075 0
0.875 0.05 0
0.9 0.05 0
0.875 0.075 0
0.9 0.075 0
0.85 0.075 0
0.875 0.075 0
0.85 0.1 0
0.875 0.1 0
0.875 0.075 0
0.9 0.075 0
0.875 0.1 0
0.9 0.1 0
0.9 0.05 0
0.925 0.05 0
0.9 0.075 0
0.925 0.075 0
0.925 0.05 0
0.95 0.05 0
0.925 0.075 0
0.95 0.075 0
0.9 0.075 0
0.925 0.075 0
0.9 0.1 0
0.925 0.1 0
0.925 0.075 0
0.95 0.075 0
0.925 0.1 0
0.95 0.1 0
0.95 0.05 0
0.975 0.05 0
0.95 0.075 0
0.975 0.075 0
0.975 0.05 0
1 0.05 0
0.975 0.075 0
1 0.075 0
0.95 0.075 0
0.975 0.075 0
0.95 0.1 0
0.975 0.1 0
0.975 0.075 0
1 0.075 0
0.975 0.1 0
1 0.1 0
1 0.05 0
1.025 0.05 0
1 0.075 0
1.025 0.075 0
1.025 0.05 0
1.05 0.05 0
1.025 0.075 0
1.05 0.075 0
1 0.075 0
1.025 0.075 0
1 0.1 0
1.025 0.1 0
1.025 0.075 0
1.05 0.075 0
1.025 0.1 0
1.05 0.1 0
1.05 0.05 0
1.075 0.05 0
1.05 0.075 0
1.075 0.075 0
1.075 0.05 0
1.1 0.05 0
1.075 0.075 0
1.1 0.075 0
1.05 0.075 0
1.075 0.075 0
1.05 0.1 0
1.075 0.1 0
1.075 0.075 0
1.1 0.075 0
1.075 0.1 0
1.1 0.1 0
1.1 0.05 0
1.125 0.05 0
1.1 0.075 0
1.125 0.075 0
1.125 0.05 0
1.15 0.05 0
1.125 0.075 0
1.15 0.075 0
1.1 0.075 0
1.125 0.075 0
1.1 0.1 0
1.125 0.1 0
1.125 0.075 0
1.15 0.075 0
1.125 0.1 0
1.15 0.1 0
1.15 0.05 0
1.175 0.05 0
1.15 0.075 0
1.175 0.075 0
1.175 0.05 0
1.2 0.05 0
1.175 0.075 0
1.2 0.075 0
1.15 0.075 0
1.175 0.075 0
1.15 0.1 0
1.175 0.1 0
1.175 0.075 0
1.2 0.075 0
1.175 0.1 0
1.2 0.1 0
1.2 0.05 0
1.225 0.05 0
1.2 0.075 0
1.225 0.075 0
1.225 0.05 0
1.25 0.05 0
1.225 0.075 0
1.25 0.075 0
1.2 0.075 0
1.225 0.075 0
1.2 0.1 0
1.225 0.1 0
1.225 0.075 0
[...]
POINT_DATA 11912
SCALARS x_displacement double 1
LOOKUP_TABLE default
0 -1.48287 0 -0.859116 -1.48287 -2.58778 -0.859116 -1.75534 -2.58778 -3.49138 -1.75534 -2.53577 -3.49138 -4.26129 -2.53577 -3.22752 -4.26129 -4.94395 -3.22752 -3.84525 -4.94395 -5.58403 -3.84525 -4.40735 -5.58403 -6.22016 -4.40735 -4.94825 -6.22016 -6.8747 -4.94825 -5.48867 -6.8747 -7.53068 -5.48867 -6.05302 -7.53068 -8.15617 -6.05302 -6.63956 -8.15617 -8.73475 -6.63956 -7.24329 -8.73475 -9.28298 -7.24329 -7.84425 -9.28298 -9.8345 -7.84425 -8.43013 -9.8345 -10.4116 -8.43013 -8.99054 -10.4116 -11.0036 -8.99054 -9.5263 -11.0036 -11.5936 -9.5263 -10.0484 -11.5936 -12.1704 -10.0484 -10.5636 -12.1704 -12.7287 -10.5636 -11.0755 -12.7287 -13.2671 -11.0755 -11.5853 -13.2671 -13.7865 -11.5853 -12.0923 -13.7865 -14.294 -12.0923 -12.5917 -14.294 -14.8115 -12.5917 -13.077 -14.8115 -15.3657 -13.077 -13.5473 -15.3657 -15.944 -13.5473 -14.0026 -15.944 -16.4594 -14.0026 -14.4252 -16.4594 -16.8325 -14.4252 -14.8086 -1.75534 -2.53577 -1.19207 -1.79821 -2.53577 -3.22752 -1.79821 -2.36014 -3.22752 -3.84525 -2.36014 -2.86936 -3.84525 -4.40735 -2.86936 -3.31397 -2.36014 -2.86936 -1.60647 -2.02005 -2.86936 -3.31397 -2.02005 -2.38704 -1.03779 -1.15937 -0.0179081 -0.0169115 -1.15937 -1.2214 -0.0169115 -0.0166336 -1.3594 -1.36755 -0.0126257 -0.0129305 -2.08039 -2.34177 -0.0126542 -0.0127768 -2.34177 -2.41469 -0.0127768 -0.0128522 -0.2227 -0.130935 0.327872 0.471114 -0.0179081 -0.0169115 1.00292 1.12576 -0.0169115 -0.0166336 1.12576 1.18833 -0.0126542 -0.0127768 2.05476 2.31604 -0.0127768 -0.0128522 2.31604 2.38882 1.59375 2.00808 2.35451 2.86335 2.00808 2.37551 2.86335 3.30756 1.18733 1.79295 1.75769 2.53832 1.79295 2.35451 2.53832 3.22941 2.35451 2.86335 3.22941 3.84577 2.86335 3.30756 3.84577 4.40612 0 0.860502 0 1.49128 0.860502 1.75769 1.49128 2.59986 1.75769 2.53832 2.59986 3.50395 2.53832 3.22941 3.50395 4.27242 3.22941 3.84577 4.27242 4.9523 3.84577 4.40612 4.9523 5.58848 4.40612 4.94488 5.58848 6.21962 4.94488 5.48251 6.21962 6.86842 5.48251 6.04335 6.86842 7.51859 6.04335 6.62578 7.51859 8.13914 6.62578 7.22531 8.13914 8.71409 7.22531 7.822 8.71409 9.25964 7.822 8.40449 9.25964 9.8086 8.40449 8.9625 9.8086 10.3827 8.9625 9.49675 10.3827 10.9716 9.49675 10.018 10.9716 11.5586 10.018 10.5326 11.5586 12.1333 10.5326 11.0441 12.1333 12.6903 11.0441 11.5536 12.6903 13.2285 11.5536 12.0603 13.2285 13.7485 12.0603 12.56 13.7485 14.2573 12.56 13.0457 14.2573 14.776 13.0457 13.5165 14.776 15.3316 13.5165 13.9724 15.3316 15.9113 13.9724 14.3953 15.9113 16.4273 14.3953 14.7788 16.4273 16.8006 -16.8325 -16.9884 -15.8206 -15.9696 -16.9884 -17.1115 -15.9696 -16.1266 -15.8206 -15.9696 -14.8086 -14.9844 -15.9696 -16.1266 -14.9844 -15.1356 -17.1115 -17.2304 -16.1266 -16.2837 -17.2304 -17.2719 -16.2837 -16.431 -16.1266 -16.2837 -15.1356 -15.2692 -16.2837 -16.431 -15.2692 -15.4005 -17.2719 -17.3596 -16.431 -16.5333 -17.3596 -17.8543 -16.5333 -16.5698 -16.431 -16.5333 -15.4005 -15.5363 -16.5333 -16.5698 -15.5363 -15.624 -17.8543 -18.1459 -16.5698 -16.8356 -18.1459 -18.3804 -16.8356 -17.0843 -16.5698 -16.8356 -15.624 -15.6671 -16.8356 -17.0843 -15.6671 -15.7764 -18.3804 -18.5989 -17.0843 -17.2995 -18.5989 -18.789 -17.2995 -17.5029 -17.0843 -17.2995 -15.7764 -16.056 -17.2995 -17.5029 -16.056 -16.2649 -18.789 -18.961 -17.5029 -17.6859 -18.961 -19.1155 -17.6859 -17.8503 -17.5029 -17.6859 -16.2649 -16.4519 -17.6859 -17.8503 -16.4519 -16.6275 -19.1155 -19.252 -17.8503 -17.9971 -19.252 -19.3703 -17.9971 -18.1258 -17.8503 -17.9971 -16.6275 -16.7823 -17.9971 -18.1258 -16.7823 -16.9194 -19.3703 -19.4706 -18.1258 -18.2377 -19.4706 -19.554 -18.2377 -18.3339 -18.1258 -18.2377 -16.9194 -17.0417 -18.2377 -18.3339 -17.0417 -17.1494 -19.554 -19.6211 -18.3339 -18.4146 -19.6211 -19.6725 -18.4146 -18.4804 -18.3339 -18.4146 -17.1494 -17.2425 -18.4146 -18.4804 -17.2425 -17.3209 -19.6725 -19.7088 -18.4804 -18.5321 -19.7088 -19.7312 -18.5321 -18.5706 -18.4804 -18.5321 -17.3209 -17.3853 -18.5321 -18.5706 -17.3853 -17.4367 -19.7312 -19.7415 -18.5706 -18.5974 -19.7415 -19.7417 -18.5974 -18.6142 -18.5706 -18.5974 -17.4367 -17.4761 -18.5974 -18.6142 -17.4761 -17.5048 -19.7417 -19.7348 -18.6142 -18.6231 -19.7348 -19.7239 -18.6231 -18.6262 -18.6142 -18.6231 -17.5048 -17.5243 -18.6231 -18.6262 -17.5243 -17.5363 -19.7239 -19.7124 -18.6262 -18.6259 -19.7124 -19.7034 -18.6259 -18.6242 -18.6262 -18.6259 -17.5363 -17.5426 -18.6259 -18.6242 -17.5426 -17.5453 -19.7034 -19.6988 -18.6242 -18.6229 -19.6988 -19.6979 -18.6229 -18.6229 -18.6242 -18.6229 -17.5453 -17.5465 -18.6229 -18.6229 -17.5465 -17.548 0 -0.429558 0 -0.35324 -0.429558 -0.859116 -0.35324 -0.721903 0 -0.35324 0 -0.276338 -0.35324 -0.721903 -0.276338 -0.58959 -0.859116 -1.30723 -0.721903 -1.09219 -1.30723 -1.75534 -1.09219 -1.4737 -0.721903 -1.09219 -0.58959 -0.896664 -1.09219 -1.4737 -0.896664 -1.19207 -4.40735 -4.6778 -3.86066 -4.08606 -4.6778 -4.94825 -4.08606 -4.31138 -3.86066 -4.08606 -3.31397 -3.51763 -4.08606 -4.31138 -3.51763 -3.6927 -4.94825 -5.21846 -4.31138 -4.54343 -5.21846 -5.48867 -4.54343 -4.78751 -4.31138 -4.54343 -3.6927 -3.86826 -4.54343 -4.78751 -3.86826 -4.07431 -5.48867 -5.77084 -4.78751 -5.03666 -5.77084 -6.05302 -5.03666 -5.29349 -4.78751 -5.03666 -4.07431 -4.29228 -5.03666 -5.29349 -4.29228 -4.50076 -6.05302 -6.34629 -5.29349 -5.57574 -6.34629 -6.63956 -5.57574 -5.87814 -5.29349 -5.57574 -4.50076 -4.76261 -5.57574 -5.87814 -4.76261 -5.09561 -6.63956 -6.94143 -5.87814 -6.18642 -6.94143 -7.24329 -6.18642 -6.49234 -5.87814 -6.18642 -5.09561 -5.42101 -6.18642 -6.49234 -5.42101 -5.71257 -7.24329 -7.54377 -6.49234 -6.81577 -7.54377 -7.84425 -6.81577 -7.13933 -6.49234 -6.81577 -5.71257 -6.07895 -6.81577 -7.13933 -6.07895 -6.46634 -7.84425 -8.13719 -7.13933 -7.45251 -8.13719 -8.43013 -7.45251 -7.75072 -7.13933 -7.45251 -6.46634 -6.80826 -7.45251 -7.75072 -6.80826 -7.10741 -8.43013 -8.71033 -7.75072 -8.02611 -8.71033 -8.99054 -8.02611 -8.29308 -7.75072 -8.02611 -7.10741 -7.36022 -8.02611 -8.29308 -7.36022 -7.60751 -8.99054 -9.25842 -8.29308 -8.54703 -9.25842 -9.5263 -8.54703 -8.79601 -8.29308 -8.54703 -7.60751 -7.84319 -8.54703 -8.79601 -7.84319 -8.07007 -9.5263 -9.78737 -8.79601 -9.03976 -9.78737 -10.0484 -9.03976 -9.28099 -8.79601 -9.03976 -8.07007 -8.29309 -9.03976 -9.28099 -8.29309 -8.51163 -10.0484 -10.306 -9.28099 -9.5223 -10.306 -10.5636 -9.5223 -9.76455 -9.28099 -9.5223 -8.51163 -8.73469 -9.5223 -9.76455 -8.73469 -8.96189 -10.5636 -10.8196 -9.76455 -10.0081 -10.8196 -11.0755 -10.0081 -10.2534 -9.76455 -10.0081 -8.96189 -9.19287 -10.0081 -10.2534 -9.19287 -9.42757 -11.0755 -11.3304 -10.2534 -10.5001 -11.3304 -11.5853 -10.5001 -10.7486 -10.2534 -10.5001 -9.42757 -9.66598 -10.5001 -10.7486 -9.66598 -9.90806 -11.5853 -11.8388 -10.7486 -10.9983 -11.8388 -12.0923 -10.9983 -11.2489 -10.7486 -10.9983 -9.90806 -10.1538 -10.9983 -11.2489 -10.1538 -10.4033 -12.0923 -12.342 -11.2489 -11.4989 -12.342 -12.5917 -11.4989 -11.7454 -11.2489 -11.4989 -10.4033 -10.6557 -11.4989 -11.7454 -10.6557 -10.9089 -12.5917 -12.8344 -11.7454 -11.9868 -12.8344 -13.077 -11.9868 -12.2187 -11.7454 -11.9868 -10.9089 -11.1565 -11.9868 -12.2187 -11.1565 -11.391 -13.077 -13.3122 -12.2187 -12.4431 -13.3122 -13.5473 -12.4431 -12.6574 -12.2187 -12.4431 -11.391 -11.6106 -12.4431 -12.6574 -11.6106 -11.8163 -13.5473 -13.7749 -12.6574 -12.8697 -13.7749 -14.0026 -12.8697 -13.0735 -12.6574 -12.8697 -11.8163 -12.004 -12.8697 -13.0735 -12.004 -12.177 -14.0026 -14.2139 -13.0735 -13.272 -14.2139 -14.4252 -13.272 -13.4622 -13.0735 -13.272 -12.177 -12.3409 -13.272 -13.4622 -12.3409 -12.5015 -14.4252 -14.6169 -13.4622 -13.6442 -14.6169 -14.8086 -13.6442 -13.8134 -13.4622 -13.6442 -12.5015 -12.6586 -13.6442 -13.8134 -12.6586 -12.8057 -14.8086 -14.9844 -13.8134 -13.9651 -14.9844 -15.1356 -13.9651 -14.1048 -13.8134 -13.9651 -12.8057 -12.9411 -13.9651 -14.1048 -12.9411 -13.0694 -15.1356 -15.2692 -14.1048 -14.2384 -15.2692 -15.4005 -14.2384 -14.3673 -14.1048 -14.2384 -13.0694 -13.1947 -14.2384 -14.3673 -13.1947 -13.3206 -15.4005 -15.5363 -14.3673 -14.483 -15.5363 -15.624 -14.483 -14.6085 -14.3673 -14.483 -13.3206 -13.4471 -14.483 -14.6085 -13.4471 -13.5768 -15.624 -15.6671 -14.6085 -14.7585 -15.6671 -15.7764 -14.7585 -14.8455 -14.6085 -14.7585 -13.5768 -13.7076 -14.7585 -14.8455 -13.7076 -13.8444 -15.7764 -16.056 -14.8455 -14.8571 -16.056 -16.2649 -14.8571 -15.0695 -14.8455 -14.8571 -13.8444 -13.9403 -14.8571 -15.0695 -13.9403 -13.9939 -16.2649 -16.4519 -15.0695 -15.2664 -16.4519 -16.6275 -15.2664 -15.4449 -15.0695 -15.2664 -13.9939 -14.0853 -15.2664 -15.4449 -14.0853 -14.2965 -16.6275 -16.7823 -15.4449 -15.6037 -16.7823 -16.9194 -15.6037 -15.7483 -15.4449 -15.6037 -14.2965 -14.46 -15.6037 -15.7483 -14.46 -14.6047 -16.9194 -17.0417 -15.7483 -15.8798 -17.0417 -17.1494 -15.8798 -15.9994 -15.7483 -15.8798 -14.6047 -14.7546 -15.8798 -15.9994 -14.7546 -14.8834 -17.1494 -17.2425 -15.9994 -16.1032 -17.2425 -17.3209 -16.1032 -16.1922 -15.9994 -16.1032 -14.8834 -14.995 -16.1032 -16.1922 -14.995 -15.0932 -17.3209 -17.3853 -16.1922 -16.2673 -17.3853 -17.4367 -16.2673 -16.3291 -16.1922 -16.2673 -15.0932 -15.1775 -16.2673 -16.3291 -15.1775 -15.2478 -17.4367 -17.4761 -16.3291 -16.3782 -17.4761 -17.5048 -16.3782 -16.4156 -16.3291 -16.3782 -15.2478 -15.3048 -16.3782 -16.4156 -15.3048 -15.3489 -17.5048 -17.5243 -16.4156 -16.4424 -17.5243 -17.5363 -16.4424 -16.4599 -16.4156 -16.4424 -15.3489 -15.3808 -16.4424 -16.4599 -15.3808 -15.4018 -17.5363 -17.5426 -16.4599 -16.47 -17.5426 -17.5453 -16.47 -16.4749 -16.4599 -16.47 -15.4018 -15.4138 -16.47 -16.4749 -15.4138 -15.4192 -17.5453 -17.5465 -16.4749 -16.477 -17.5465 -17.548 -16.477 -16.4794 -16.4749 -16.477 -15.4192 -15.4211 -16.477 -16.4794 -15.4211 -15.4236 0 -0.276338 0 -0.214767 -0.276338 -0.58959 -0.214767 -0.463768 0 -0.214767 0 -0.122255 -0.214767 -0.463768 -0.122255 -0.277274 -0.58959 -0.896664 -0.463768 -0.698029 -0.896664 -1.19207 -0.698029 -0.957662 -0.463768 -0.698029 -0.277274 -0.492719 -0.698029 -0.957662 -0.492719 -0.741381 -1.19207 -1.49514 -0.957662 -1.22236 -1.49514 -1.79821 -1.22236 -1.47753 -0.957662 -1.22236 -0.741381 -0.954627 -1.22236 -1.47753 -0.954627 -1.17261 -1.79821 -2.07917 -1.47753 -1.73159 -2.07917 -2.36014 -1.73159 -1.98331 -1.47753 -1.73159 -1.17261 -1.39518 -1.73159 -1.98331 -1.39518 -1.60647 -3.31397 -3.51763 -2.8505 -3.00884 -3.51763 -3.6927 -3.00884 -3.15126 -2.8505 -3.00884 -2.38704 -2.55517 -3.00884 -3.15126 -2.55517 -2.7008 -3.6927 -3.86826 -3.15126 -3.27051 -3.86826 -4.07431 -3.27051 -3.39382 -3.15126 -3.27051 -2.7008 -2.82671 -3.27051 -3.39382 -2.82671 -2.9515 -4.07431 -4.29228 -3.39382 -3.55772 -4.29228 -4.50076 -3.55772 -3.75506 -3.39382 -3.55772 -2.9515 -3.08449 -3.55772 -3.75506 -3.08449 -3.22327 -4.50076 -4.76261 -3.75506 -3.97208 -4.76261 -5.09561 -3.97208 -4.22831 -3.75506 -3.97208 -3.22327 -3.36723 -3.97208 -4.22831 -3.36723 -3.4721 -5.09561 -5.42101 -4.22831 -4.55896 -5.42101 -5.71257 -4.55896 -4.91593 -4.22831 -4.55896 -3.4721 -3.55622 -4.55896 -4.91593 -3.55622 -3.92768 -5.71257 -6.07895 -4.91593 -5.32592 -6.07895 -6.46634 -5.32592 -5.81343 -4.91593 -5.32592 -3.92768 -4.62745 -5.32592 -5.81343 -4.62745 -5.22649 -6.46634 -6.80826 -5.81343 -6.19019 -6.80826 -7.10741 -6.19019 -6.4595 -5.81343 -6.19019 -5.22649 -5.54793 -6.19019 -6.4595 -5.54793 -5.84707 -7.10741 -7.36022 -6.4595 -6.69645 -7.36022 -7.60751 -6.69645 -6.91241 -6.4595 -6.69645 -5.84707 -5.98929 -6.69645 -6.91241 -5.98929 -6.23826 -7.60751 -7.84319 -6.91241 -7.13521 -7.84319 -8.07007 -7.13521 -7.33713 -6.91241 -7.13521 -6.23826 -6.40533 -7.13521 -7.33713 -6.40533 -6.60694 -8.07007 -8.29309 -7.33713 -7.54148 -8.29309 -8.51163 -7.54148 -7.73816 -7.33713 -7.54148 -6.60694 -6.78359 -7.54148 -7.73816 -6.78359 -6.96351 -8.51163 -8.73469 -7.73816 -7.94354 -8.73469 -8.96189 -7.94354 -8.15583 -7.73816 -7.94354 -6.96351 -7.15201 -7.94354 -8.15583 -7.15201 -7.34929 -8.96189 -9.19287 -8.15583 -8.37423 -9.19287 -9.42757 -8.37423 -8.59848 -8.15583 -8.37423 -7.34929 -7.55513 -8.37423 -8.59848 -7.55513 -7.76891 -9.42757 -9.66598 -8.59848 -8.82845 -9.66598 -9.90806 -8.82845 -9.06416 -8.59848 -8.82845 -7.76891 -7.99047 -8.82845 -9.06416 -7.99047 -8.21979 -9.90806 -10.1538 -9.06416 -9.30582 -10.1538 -10.4033 -9.30582 -9.55463 -9.06416 -9.30582 -8.21979 -8.4574 -9.30582 -9.55463 -8.4574 -8.70633 -10.4033 -10.6557 -9.55463 -9.8148 -10.6557 -10.9089 -9.8148 -10.0902 -9.55463 -9.8148 -8.70633 -8.9807 -9.8148 -10.0902 -8.9807 -9.30438 -10.9089 -11.1565 -10.0902 -10.3623 -11.1565 -11.391 -10.3623 -10.6129 -10.0902 -10.3623 -9.30438 -9.62353 -10.3623 -10.6129 -9.62353 -9.97222 -11.391 -11.6106 -10.6129 -10.8537 -11.6106 -11.8163 -10.8537 -11.0495 -10.6129 -10.8537 -9.97222 -10.2222 -10.8537 -11.0495 -10.2222 -10.3369 -11.8163 -12.004 -11.0495 -11.1913 -12.004 -12.177 -11.1913 -11.3083 -11.0495 -11.1913 -10.3369 -10.4072 -11.1913 -11.3083 -10.4072 -10.4607 -12.177 -12.3409 -11.3083 -11.4176 -12.3409 -12.5015 -11.4176 -11.5271 -11.3083 -11.4176 -10.4607 -10.5061 -11.4176 -11.5271 -10.5061 -10.546 -12.5015 -12.6586 -11.5271 -11.6411 -12.6586 -12.8057 -11.6411 -11.7643 -11.5271 -11.6411 -10.546 -10.5897 -11.6411 -11.7643 -10.5897 -10.6669 -12.8057 -12.9411 -11.7643 -11.8895 -12.9411 -13.0694 -11.8895 -12.0128 -11.7643 -11.8895 -10.6669 -10.7852 -11.8895 -12.0128 -10.7852 -10.9267 -13.0694 -13.1947 -12.0128 -12.1398 -13.1947 -13.3206 -12.1398 -12.2707 -12.0128 -12.1398 -10.9267 -11.0717 -12.1398 -12.2707 -11.0717 -11.2126 -13.3206 -13.4471 -12.2707 -12.4023 -13.4471 -13.5768 -12.4023 -12.5367 -12.2707 -12.4023 -11.2126 -11.3526 -12.4023 -12.5367 -11.3526 -11.4924 -13.5768 -13.7076 -12.5367 -12.6723 -13.7076 -13.8444 -12.6723 -12.7978 -12.5367 -12.6723 -11.4924 -11.6328 -12.6723 -12.7978 -11.6328 -11.7738 -13.8444 -13.9403 -12.7978 -12.9364 -13.9403 -13.9939 -12.9364 -13.1032 -12.7978 -12.9364 -11.7738 -11.9193 -12.9364 -13.1032 -11.9193 -12.0575 -13.9939 -14.0853 -13.1032 -13.1912 -14.0853 -14.2965 -13.1912 -13.1668 -13.1032 -13.1912 -12.0575 -12.1913 -13.1912 -13.1668 -12.1913 -12.3107 -14.2965 -14.46 -13.1668 -13.3118 -14.46 -14.6047 -13.3118 -13.5129 -13.1668 -13.3118 -12.3107 -12.4196 -13.3118 -13.5129 -12.4196 -12.4498 -14.6047 -14.7546 -13.5129 -13.6689 -14.7546 -14.8834 -13.6689 -13.7965 -13.5129 -13.6689 -12.4498 -12.6009 -13.6689 -13.7965 -12.6009 -12.7362 -14.8834 -14.995 -13.7965 -13.9165 -14.995 -15.0932 -13.9165 -14.0233 -13.7965 -13.9165 -12.7362 -12.8673 -13.9165 -14.0233 -12.8673 -12.9819 -15.0932 -15.1775 -14.0233 -14.1154 -15.1775 -15.2478 -14.1154 -14.1932 -14.0233 -14.1154 -12.9819 -13.0804 -14.1154 -14.1932 -13.0804 -13.1648 -15.2478 -15.3048 -14.1932 -14.2569 -15.3048 -15.3489 -14.2569 -14.3065 -14.1932 -14.2569 -13.1648 -13.2356 -14.2569 -14.3065 -13.2356 -13.2903 -15.3489 -15.3808 -14.3065 -14.3424 -15.3808 -15.4018 -14.3424 -14.3659 -14.3065 -14.3424 -13.2903 -13.3298 -14.3424 -14.3659 -13.3298 -13.3553 -15.4018 -15.4138 -14.3659 -14.3787 -15.4138 -15.4192 -14.3787 -14.3835 -14.3659 -14.3787 -13.3553 -13.3685 -14.3787 -14.3835 -13.3685 -13.3721 -15.4192 -15.4211 -14.3835 -14.3842 -15.4211 -15.4236 -14.3842 -14.3857 -14.3835 -14.3842 -13.3721 -13.3707 -14.3842 -14.3857 -13.3707 -13.3701 0 -0.122255 0 -0.0845707 -0.122255 -0.277274 -0.0845707 -0.0650557 0 -0.0845707 0 -0.120149 -0.0845707 -0.0650557 -0.120149 -0.268159 -0.277274 -0.492719 -0.0650557 -0.295009 -0.492719 -0.741381 -0.295009 -0.493288 -0.0650557 -0.295009 -0.268159 -0.455657 -0.295009 -0.493288 -0.455657 -0.275566 -0.741381 -0.954627 -0.493288 -0.686029 -0.954627 -1.17261 -0.686029 -0.883545 -0.493288 -0.686029 -0.275566 -0.404023 -0.686029 -0.883545 -0.404023 -0.564266 -1.17261 -1.39518 -0.883545 -1.06433 -1.39518 -1.60647 -1.06433 -1.25254 -0.883545 -1.06433 -0.564266 -0.733401 -1.06433 -1.25254 -0.733401 -0.913447 -1.60647 -1.81326 -1.25254 -1.4463 -1.81326 -2.02005 -1.4463 -1.6293 -1.25254 -1.4463 -0.913447 -1.07825 -1.4463 -1.6293 -1.07825 -1.25016 -2.02005 -2.20355 -1.6293 -1.80847 -2.20355 -2.38704 -1.80847 -1.97951 -1.6293 -1.80847 -1.25016 -1.42634 -1.80847 -1.97951 -1.42634 -1.59368 -2.38704 -2.55517 -1.97951 -2.14286 -2.55517 -2.7008 -2.14286 -2.29908 -1.97951 -2.14286 -1.59368 -1.75767 -2.14286 -2.29908 -1.75767 -1.92062 -2.7008 -2.82671 -2.29908 -2.44928 -2.82671 -2.9515 -2.44928 -2.59938 -2.29908 -2.44928 -1.92062 -2.08152 -2.44928 -2.59938 -2.08152 -2.24042 -2.9515 -3.08449 -2.59938 -2.7454 -3.08449 -3.22327 -2.7454 -2.88858 -2.59938 -2.7454 -2.24042 -2.39973 -2.7454 -2.88858 -2.39973 -2.56554 -3.22327 -3.36723 -2.88858 -3.03963 -3.36723 -3.4721 -3.03963 -3.19145 -2.88858 -3.03963 -2.56554 -2.72994 -3.03963 -3.19145 -2.72994 -2.89296 -3.4721 -3.55622 -3.19145 -3.37594 -3.55622 -3.92768 -3.37594 -3.54365 -3.19145 -3.37594 -2.89296 -3.07369 -3.37594 -3.54365 -3.07369 -3.25477 -3.92768 -4.62745 -3.54365 -3.439 -4.62745 -5.22649 -3.439 -3.633 -3.54365 -3.439 -3.25477 -3.43916 -3.439 -3.633 -3.43916 -3.6199 -5.22649 -5.54793 -3.633 -4.31139 -5.54793 -5.84707 -4.31139 -4.78846 -3.633 -4.31139 -3.6199 -3.52677 -4.31139 -4.78846 -3.52677 -3.52201 -5.84707 -5.98929 -4.78846 -5.08863 -5.98929 -6.23826 -5.08863 -5.35132 -4.78846 -5.08863 -3.52201 -4.12085 -5.08863 -5.35132 -4.12085 -4.54588 -6.23826 -6.40533 -5.35132 -5.6451 -6.40533 -6.60694 -5.6451 -5.89666 -5.35132 -5.6451 -4.54588 -4.86649 -5.6451 -5.89666 -4.86649 -5.16386 -6.60694 -6.78359 -5.89666 -6.13218 -6.78359 -6.96351 -6.13218 -6.35687 -5.89666 -6.13218 -5.16386 -5.43315 -6.13218 -6.35687 -5.43315 -5.70961 -6.96351 -7.15201 -6.35687 -6.58479 -7.15201 -7.34929 -6.58479 -6.82057 -6.35687 -6.58479 -5.70961 -5.96518 -6.58479 -6.82057 -5.96518 -6.24088 -7.34929 -7.55513 -6.82057 -7.06889 -7.55513 -7.76891 -7.06889 -7.32497 -6.82057 -7.06889 -6.24088 -6.53093 -7.06889 -7.32497 -6.53093 -6.82288 -7.76891 -7.99047 -7.32497 -7.58618 -7.99047 -8.21979 -7.58618 -7.8568 -7.32497 -7.58618 -6.82288 -7.11142 -7.58618 -7.8568 -7.11142 -7.39793 -8.21979 -8.4574 -7.8568 -8.15553 -8.4574 -8.70633 -8.15553 -8.52665 -7.8568 -8.15553 -7.39793 -7.68115 -8.15553 -8.52665 -7.68115 -7.9429 -8.70633 -8.9807 -8.52665 -9.08603 -8.9807 -9.30438 -9.08603 -9.27321 -8.52665 -9.08603 -7.9429 -8.19417 -9.08603 -9.27321 -8.19417 -8.50018 -9.30438 -9.62353 -9.27321 -9.3977 -9.62353 -9.97222 -9.3977 -9.49365 -9.27321 -9.3977 -8.50018 -8.73999 -9.3977 -9.49365 -8.73999 -8.77303 -9.97222 -10.2222 -9.49365 -9.55804 -10.2222 -10.3369 -9.55804 -9.59937 -9.49365 -9.55804 -8.77303 -8.80114 -9.55804 -9.59937 -8.80114 -8.81333 -10.3369 -10.4072 -9.59937 -9.61937 -10.4072 -10.4607 -9.61937 -9.6238 -9.59937 -9.61937 -8.81333 -8.80911 -9.61937 -9.6238 -8.80911 -8.78239 -10.4607 -10.5061 -9.6238 -9.6132 -10.5061 -10.546 -9.6132 -9.58911 -9.6238 -9.6132 -8.78239 -8.73598 -9.6132 -9.58911 -8.73598 -8.67004 -10.546 -10.5897 -9.58911 -9.54614 -10.5897 -10.6669 -9.54614 -9.51832 -9.58911 -9.54614 -8.67004 -8.58723 -9.54614 -9.51832 -8.58723 -8.41438 -10.6669 -10.7852 -9.51832 -9.65415 -10.7852 -10.9267 -9.65415 -9.83681 -9.51832 -9.65415 -8.41438 -8.52812 -9.65415 -9.83681 -8.52812 -8.73301 -10.9267 -11.0717 -9.83681 -9.98705 -11.0717 -11.2126 -9.98705 -10.1432 -9.83681 -9.98705 -8.73301 -8.90946 -9.98705 -10.1432 -8.90946 -9.08895 -11.2126 -11.3526 -10.1432 -10.3014 -11.3526 -11.4924 -10.3014 -10.4509 -10.1432 -10.3014 -9.08895 -9.25017 -10.3014 -10.4509 -9.25017 -9.4092 -11.4924 -11.6328 -10.4509 -10.5981 -11.6328 -11.7738 -10.5981 -10.7445 -10.4509 -10.5981 -9.4092 -9.56771 -10.5981 -10.7445 -9.56771 -9.71928 -11.7738 -11.9193 -10.7445 -10.8926 -11.9193 -12.0575 -10.8926 -11.0347 -10.7445 -10.8926 -9.71928 -9.86767 -10.8926 -11.0347 -9.86767 -10.0136 -12.0575 -12.1913 -11.0347 -11.166 -12.1913 -12.3107 -11.166 -11.3102 -11.0347 -11.166 -10.0136 -10.1605 -11.166 -11.3102 -10.1605 -10.309 -12.3107 -12.4196 -11.3102 -11.4694 -12.4196 -12.4498 -11.4694 -11.5579 -11.3102 -11.4694 -10.309 -10.4438 -11.4694 -11.5579 -10.4438 -10.5876 -12.4498 -12.6009 -11.5579 -11.5634 -12.6009 -12.7362 -11.5634 -11.6997 -11.5579 -11.5634 -10.5876 -10.7569 -11.5634 -11.6997 -10.7569 -10.8553 -12.7362 -12.867