# vtk DataFile Version 3.0
#This file was generated by the deal.II library on 2015/9/1 at 17:13: 0
ASCII
DATASET UNSTRUCTURED_GRID

POINTS 11912 double
0 0 0
0.05 0 0
0 0.05 0
0.05 0.05 0
0.05 0 0
0.1 0 0
0.05 0.05 0
0.1 0.05 0
0.1 0 0
0.15 0 0
0.1 0.05 0
0.15 0.05 0
0.15 0 0
0.2 0 0
0.15 0.05 0
0.2 0.05 0
0.2 0 0
0.25 0 0
0.2 0.05 0
0.25 0.05 0
0.25 0 0
0.3 0 0
0.25 0.05 0
0.3 0.05 0
0.3 0 0
0.35 0 0
0.3 0.05 0
0.35 0.05 0
0.35 0 0
0.4 0 0
0.35 0.05 0
0.4 0.05 0
0.4 0 0
0.45 0 0
0.4 0.05 0
0.45 0.05 0
0.45 0 0
0.5 0 0
0.45 0.05 0
0.5 0.05 0
0.5 0 0
0.55 0 0
0.5 0.05 0
0.55 0.05 0
0.55 0 0
0.6 0 0
0.55 0.05 0
0.6 0.05 0
0.6 0 0
0.65 0 0
0.6 0.05 0
0.65 0.05 0
0.65 0 0
0.7 0 0
0.65 0.05 0
0.7 0.05 0
0.7 0 0
0.75 0 0
0.7 0.05 0
0.75 0.05 0
0.75 0 0
0.8 0 0
0.75 0.05 0
0.8 0.05 0
0.8 0 0
0.85 0 0
0.8 0.05 0
0.85 0.05 0
0.85 0 0
0.9 0 0
0.85 0.05 0
0.9 0.05 0
0.9 0 0
0.95 0 0
0.9 0.05 0
0.95 0.05 0
0.95 0 0
1 0 0
0.95 0.05 0
1 0.05 0
1 0 0
1.05 0 0
1 0.05 0
1.05 0.05 0
1.05 0 0
1.1 0 0
1.05 0.05 0
1.1 0.05 0
1.1 0 0
1.15 0 0
1.1 0.05 0
1.15 0.05 0
1.15 0 0
1.2 0 0
1.15 0.05 0
1.2 0.05 0
1.2 0 0
1.25 0 0
1.2 0.05 0
1.25 0.05 0
1.25 0 0
1.3 0 0
1.25 0.05 0
1.3 0.05 0
0.1 0.05 0
0.15 0.05 0
0.1 0.1 0
0.15 0.1 0
0.15 0.05 0
0.2 0.05 0
0.15 0.1 0
0.2 0.1 0
0.2 0.05 0
0.25 0.05 0
0.2 0.1 0
0.25 0.1 0
0.25 0.05 0
0.3 0.05 0
0.25 0.1 0
0.3 0.1 0
0.2 0.1 0
0.25 0.1 0
0.2 0.15 0
0.25 0.15 0
0.25 0.1 0
0.3 0.1 0
0.25 0.15 0
0.3 0.15 0
0.85 0.45 0
0.9 0.45 0
0.85 0.5 0
0.9 0.5 0
0.9 0.45 0
0.95 0.45 0
0.9 0.5 0
0.95 0.5 0
1.45 0.45 0
1.5 0.45 0
1.45 0.5 0
1.5 0.5 0
1.9 0.45 0
1.95 0.45 0
1.9 0.5 0
1.95 0.5 0
1.95 0.45 0
2 0.45 0
1.95 0.5 0
2 0.5 0
0.65 0.5 0
0.7 0.5 0
0.65 0.55 0
0.7 0.55 0
0.85 0.5 0
0.9 0.5 0
0.85 0.55 0
0.9 0.55 0
0.9 0.5 0
0.95 0.5 0
0.9 0.55 0
0.95 0.55 0
1.9 0.5 0
1.95 0.5 0
1.9 0.55 0
1.95 0.55 0
1.95 0.5 0
2 0.5 0
1.95 0.55 0
2 0.55 0
0.2 0.85 0
0.25 0.85 0
0.2 0.9 0
0.25 0.9 0
0.25 0.85 0
0.3 0.85 0
0.25 0.9 0
0.3 0.9 0
0.1 0.9 0
0.15 0.9 0
0.1 0.95 0
0.15 0.95 0
0.15 0.9 0
0.2 0.9 0
0.15 0.95 0
0.2 0.95 0
0.2 0.9 0
0.25 0.9 0
0.2 0.95 0
0.25 0.95 0
0.25 0.9 0
0.3 0.9 0
0.25 0.95 0
0.3 0.95 0
0 0.95 0
0.05 0.95 0
0 1 0
0.05 1 0
0.05 0.95 0
0.1 0.95 0
0.05 1 0
0.1 1 0
0.1 0.95 0
0.15 0.95 0
0.1 1 0
0.15 1 0
0.15 0.95 0
0.2 0.95 0
0.15 1 0
0.2 1 0
0.2 0.95 0
0.25 0.95 0
0.2 1 0
0.25 1 0
0.25 0.95 0
0.3 0.95 0
0.25 1 0
0.3 1 0
0.3 0.95 0
0.35 0.95 0
0.3 1 0
0.35 1 0
0.35 0.95 0
0.4 0.95 0
0.35 1 0
0.4 1 0
0.4 0.95 0
0.45 0.95 0
0.4 1 0
0.45 1 0
0.45 0.95 0
0.5 0.95 0
0.45 1 0
0.5 1 0
0.5 0.95 0
0.55 0.95 0
0.5 1 0
0.55 1 0
0.55 0.95 0
0.6 0.95 0
0.55 1 0
0.6 1 0
0.6 0.95 0
0.65 0.95 0
0.6 1 0
0.65 1 0
0.65 0.95 0
0.7 0.95 0
0.65 1 0
0.7 1 0
0.7 0.95 0
0.75 0.95 0
0.7 1 0
0.75 1 0
0.75 0.95 0
0.8 0.95 0
0.75 1 0
0.8 1 0
0.8 0.95 0
0.85 0.95 0
0.8 1 0
0.85 1 0
0.85 0.95 0
0.9 0.95 0
0.85 1 0
0.9 1 0
0.9 0.95 0
0.95 0.95 0
0.9 1 0
0.95 1 0
0.95 0.95 0
1 0.95 0
0.95 1 0
1 1 0
1 0.95 0
1.05 0.95 0
1 1 0
1.05 1 0
1.05 0.95 0
1.1 0.95 0
1.05 1 0
1.1 1 0
1.1 0.95 0
1.15 0.95 0
1.1 1 0
1.15 1 0
1.15 0.95 0
1.2 0.95 0
1.15 1 0
1.2 1 0
1.2 0.95 0
1.25 0.95 0
1.2 1 0
1.25 1 0
1.25 0.95 0
1.3 0.95 0
1.25 1 0
1.3 1 0
1.3 0 0
1.325 0 0
1.3 0.025 0
1.325 0.025 0
1.325 0 0
1.35 0 0
1.325 0.025 0
1.35 0.025 0
1.3 0.025 0
1.325 0.025 0
1.3 0.05 0
1.325 0.05 0
1.325 0.025 0
1.35 0.025 0
1.325 0.05 0
1.35 0.05 0
1.35 0 0
1.375 0 0
1.35 0.025 0
1.375 0.025 0
1.375 0 0
1.4 0 0
1.375 0.025 0
1.4 0.025 0
1.35 0.025 0
1.375 0.025 0
1.35 0.05 0
1.375 0.05 0
1.375 0.025 0
1.4 0.025 0
1.375 0.05 0
1.4 0.05 0
1.4 0 0
1.425 0 0
1.4 0.025 0
1.425 0.025 0
1.425 0 0
1.45 0 0
1.425 0.025 0
1.45 0.025 0
1.4 0.025 0
1.425 0.025 0
1.4 0.05 0
1.425 0.05 0
1.425 0.025 0
1.45 0.025 0
1.425 0.05 0
1.45 0.05 0
1.45 0 0
1.475 0 0
1.45 0.025 0
1.475 0.025 0
1.475 0 0
1.5 0 0
1.475 0.025 0
1.5 0.025 0
1.45 0.025 0
1.475 0.025 0
1.45 0.05 0
1.475 0.05 0
1.475 0.025 0
1.5 0.025 0
1.475 0.05 0
1.5 0.05 0
1.5 0 0
1.525 0 0
1.5 0.025 0
1.525 0.025 0
1.525 0 0
1.55 0 0
1.525 0.025 0
1.55 0.025 0
1.5 0.025 0
1.525 0.025 0
1.5 0.05 0
1.525 0.05 0
1.525 0.025 0
1.55 0.025 0
1.525 0.05 0
1.55 0.05 0
1.55 0 0
1.575 0 0
1.55 0.025 0
1.575 0.025 0
1.575 0 0
1.6 0 0
1.575 0.025 0
1.6 0.025 0
1.55 0.025 0
1.575 0.025 0
1.55 0.05 0
1.575 0.05 0
1.575 0.025 0
1.6 0.025 0
1.575 0.05 0
1.6 0.05 0
1.6 0 0
1.625 0 0
1.6 0.025 0
1.625 0.025 0
1.625 0 0
1.65 0 0
1.625 0.025 0
1.65 0.025 0
1.6 0.025 0
1.625 0.025 0
1.6 0.05 0
1.625 0.05 0
1.625 0.025 0
1.65 0.025 0
1.625 0.05 0
1.65 0.05 0
1.65 0 0
1.675 0 0
1.65 0.025 0
1.675 0.025 0
1.675 0 0
1.7 0 0
1.675 0.025 0
1.7 0.025 0
1.65 0.025 0
1.675 0.025 0
1.65 0.05 0
1.675 0.05 0
1.675 0.025 0
1.7 0.025 0
1.675 0.05 0
1.7 0.05 0
1.7 0 0
1.725 0 0
1.7 0.025 0
1.725 0.025 0
1.725 0 0
1.75 0 0
1.725 0.025 0
1.75 0.025 0
1.7 0.025 0
1.725 0.025 0
1.7 0.05 0
1.725 0.05 0
1.725 0.025 0
1.75 0.025 0
1.725 0.05 0
1.75 0.05 0
1.75 0 0
1.775 0 0
1.75 0.025 0
1.775 0.025 0
1.775 0 0
1.8 0 0
1.775 0.025 0
1.8 0.025 0
1.75 0.025 0
1.775 0.025 0
1.75 0.05 0
1.775 0.05 0
1.775 0.025 0
1.8 0.025 0
1.775 0.05 0
1.8 0.05 0
1.8 0 0
1.825 0 0
1.8 0.025 0
1.825 0.025 0
1.825 0 0
1.85 0 0
1.825 0.025 0
1.85 0.025 0
1.8 0.025 0
1.825 0.025 0
1.8 0.05 0
1.825 0.05 0
1.825 0.025 0
1.85 0.025 0
1.825 0.05 0
1.85 0.05 0
1.85 0 0
1.875 0 0
1.85 0.025 0
1.875 0.025 0
1.875 0 0
1.9 0 0
1.875 0.025 0
1.9 0.025 0
1.85 0.025 0
1.875 0.025 0
1.85 0.05 0
1.875 0.05 0
1.875 0.025 0
1.9 0.025 0
1.875 0.05 0
1.9 0.05 0
1.9 0 0
1.925 0 0
1.9 0.025 0
1.925 0.025 0
1.925 0 0
1.95 0 0
1.925 0.025 0
1.95 0.025 0
1.9 0.025 0
1.925 0.025 0
1.9 0.05 0
1.925 0.05 0
1.925 0.025 0
1.95 0.025 0
1.925 0.05 0
1.95 0.05 0
1.95 0 0
1.975 0 0
1.95 0.025 0
1.975 0.025 0
1.975 0 0
2 0 0
1.975 0.025 0
2 0.025 0
1.95 0.025 0
1.975 0.025 0
1.95 0.05 0
1.975 0.05 0
1.975 0.025 0
2 0.025 0
1.975 0.05 0
2 0.05 0
0 0.05 0
0.025 0.05 0
0 0.075 0
0.025 0.075 0
0.025 0.05 0
0.05 0.05 0
0.025 0.075 0
0.05 0.075 0
0 0.075 0
0.025 0.075 0
0 0.1 0
0.025 0.1 0
0.025 0.075 0
0.05 0.075 0
0.025 0.1 0
0.05 0.1 0
0.05 0.05 0
0.075 0.05 0
0.05 0.075 0
0.075 0.075 0
0.075 0.05 0
0.1 0.05 0
0.075 0.075 0
0.1 0.075 0
0.05 0.075 0
0.075 0.075 0
0.05 0.1 0
0.075 0.1 0
0.075 0.075 0
0.1 0.075 0
0.075 0.1 0
0.1 0.1 0
0.3 0.05 0
0.325 0.05 0
0.3 0.075 0
0.325 0.075 0
0.325 0.05 0
0.35 0.05 0
0.325 0.075 0
0.35 0.075 0
0.3 0.075 0
0.325 0.075 0
0.3 0.1 0
0.325 0.1 0
0.325 0.075 0
0.35 0.075 0
0.325 0.1 0
0.35 0.1 0
0.35 0.05 0
0.375 0.05 0
0.35 0.075 0
0.375 0.075 0
0.375 0.05 0
0.4 0.05 0
0.375 0.075 0
0.4 0.075 0
0.35 0.075 0
0.375 0.075 0
0.35 0.1 0
0.375 0.1 0
0.375 0.075 0
0.4 0.075 0
0.375 0.1 0
0.4 0.1 0
0.4 0.05 0
0.425 0.05 0
0.4 0.075 0
0.425 0.075 0
0.425 0.05 0
0.45 0.05 0
0.425 0.075 0
0.45 0.075 0
0.4 0.075 0
0.425 0.075 0
0.4 0.1 0
0.425 0.1 0
0.425 0.075 0
0.45 0.075 0
0.425 0.1 0
0.45 0.1 0
0.45 0.05 0
0.475 0.05 0
0.45 0.075 0
0.475 0.075 0
0.475 0.05 0
0.5 0.05 0
0.475 0.075 0
0.5 0.075 0
0.45 0.075 0
0.475 0.075 0
0.45 0.1 0
0.475 0.1 0
0.475 0.075 0
0.5 0.075 0
0.475 0.1 0
0.5 0.1 0
0.5 0.05 0
0.525 0.05 0
0.5 0.075 0
0.525 0.075 0
0.525 0.05 0
0.55 0.05 0
0.525 0.075 0
0.55 0.075 0
0.5 0.075 0
0.525 0.075 0
0.5 0.1 0
0.525 0.1 0
0.525 0.075 0
0.55 0.075 0
0.525 0.1 0
0.55 0.1 0
0.55 0.05 0
0.575 0.05 0
0.55 0.075 0
0.575 0.075 0
0.575 0.05 0
0.6 0.05 0
0.575 0.075 0
0.6 0.075 0
0.55 0.075 0
0.575 0.075 0
0.55 0.1 0
0.575 0.1 0
0.575 0.075 0
0.6 0.075 0
0.575 0.1 0
0.6 0.1 0
0.6 0.05 0
0.625 0.05 0
0.6 0.075 0
0.625 0.075 0
0.625 0.05 0
0.65 0.05 0
0.625 0.075 0
0.65 0.075 0
0.6 0.075 0
0.625 0.075 0
0.6 0.1 0
0.625 0.1 0
0.625 0.075 0
0.65 0.075 0
0.625 0.1 0
0.65 0.1 0
0.65 0.05 0
0.675 0.05 0
0.65 0.075 0
0.675 0.075 0
0.675 0.05 0
0.7 0.05 0
0.675 0.075 0
0.7 0.075 0
0.65 0.075 0
0.675 0.075 0
0.65 0.1 0
0.675 0.1 0
0.675 0.075 0
0.7 0.075 0
0.675 0.1 0
0.7 0.1 0
0.7 0.05 0
0.725 0.05 0
0.7 0.075 0
0.725 0.075 0
0.725 0.05 0
0.75 0.05 0
0.725 0.075 0
0.75 0.075 0
0.7 0.075 0
0.725 0.075 0
0.7 0.1 0
0.725 0.1 0
0.725 0.075 0
0.75 0.075 0
0.725 0.1 0
0.75 0.1 0
0.75 0.05 0
0.775 0.05 0
0.75 0.075 0
0.775 0.075 0
0.775 0.05 0
0.8 0.05 0
0.775 0.075 0
0.8 0.075 0
0.75 0.075 0
0.775 0.075 0
0.75 0.1 0
0.775 0.1 0
0.775 0.075 0
0.8 0.075 0
0.775 0.1 0
0.8 0.1 0
0.8 0.05 0
0.825 0.05 0
0.8 0.075 0
0.825 0.075 0
0.825 0.05 0
0.85 0.05 0
0.825 0.075 0
0.85 0.075 0
0.8 0.075 0
0.825 0.075 0
0.8 0.1 0
0.825 0.1 0
0.825 0.075 0
0.85 0.075 0
0.825 0.1 0
0.85 0.1 0
0.85 0.05 0
0.875 0.05 0
0.85 0.075 0
0.875 0.075 0
0.875 0.05 0
0.9 0.05 0
0.875 0.075 0
0.9 0.075 0
0.85 0.075 0
0.875 0.075 0
0.85 0.1 0
0.875 0.1 0
0.875 0.075 0
0.9 0.075 0
0.875 0.1 0
0.9 0.1 0
0.9 0.05 0
0.925 0.05 0
0.9 0.075 0
0.925 0.075 0
0.925 0.05 0
0.95 0.05 0
0.925 0.075 0
0.95 0.075 0
0.9 0.075 0
0.925 0.075 0
0.9 0.1 0
0.925 0.1 0
0.925 0.075 0
0.95 0.075 0
0.925 0.1 0
0.95 0.1 0
0.95 0.05 0
0.975 0.05 0
0.95 0.075 0
0.975 0.075 0
0.975 0.05 0
1 0.05 0
0.975 0.075 0
1 0.075 0
0.95 0.075 0
0.975 0.075 0
0.95 0.1 0
0.975 0.1 0
0.975 0.075 0
1 0.075 0
0.975 0.1 0
1 0.1 0
1 0.05 0
1.025 0.05 0
1 0.075 0
1.025 0.075 0
1.025 0.05 0
1.05 0.05 0
1.025 0.075 0
1.05 0.075 0
1 0.075 0
1.025 0.075 0
1 0.1 0
1.025 0.1 0
1.025 0.075 0
1.05 0.075 0
1.025 0.1 0
1.05 0.1 0
1.05 0.05 0
1.075 0.05 0
1.05 0.075 0
1.075 0.075 0
1.075 0.05 0
1.1 0.05 0
1.075 0.075 0
1.1 0.075 0
1.05 0.075 0
1.075 0.075 0
1.05 0.1 0
1.075 0.1 0
1.075 0.075 0
1.1 0.075 0
1.075 0.1 0
1.1 0.1 0
1.1 0.05 0
1.125 0.05 0
1.1 0.075 0
1.125 0.075 0
1.125 0.05 0
1.15 0.05 0
1.125 0.075 0
1.15 0.075 0
1.1 0.075 0
1.125 0.075 0
1.1 0.1 0
1.125 0.1 0
1.125 0.075 0
1.15 0.075 0
1.125 0.1 0
1.15 0.1 0
1.15 0.05 0
1.175 0.05 0
1.15 0.075 0
1.175 0.075 0
1.175 0.05 0
1.2 0.05 0
1.175 0.075 0
1.2 0.075 0
1.15 0.075 0
1.175 0.075 0
1.15 0.1 0
1.175 0.1 0
1.175 0.075 0
1.2 0.075 0
1.175 0.1 0
1.2 0.1 0
1.2 0.05 0
1.225 0.05 0
1.2 0.075 0
1.225 0.075 0
1.225 0.05 0
1.25 0.05 0
1.225 0.075 0
1.25 0.075 0
1.2 0.075 0
1.225 0.075 0
1.2 0.1 0
1.225 0.1 0
1.225 0.075 0
[...]
POINT_DATA 11912
SCALARS x_displacement double 1
LOOKUP_TABLE default
0 -1.49385 0 -0.861706 -1.49385 -2.60769 -0.861706 -1.76066 -2.60769 -3.51859 -1.76066 -2.54381 -3.51859 -4.29489 -2.54381 -3.23791 -4.29489 -4.98419 -3.23791 -3.85762 -4.98419 -5.63361 -3.85762 -4.4222 -5.63361 -6.28295 -4.4222 -4.96909 -6.28295 -6.95472 -4.96909 -5.51982 -6.95472 -7.63242 -5.51982 -6.09883 -7.63242 -8.27934 -6.09883 -6.70634 -8.27934 -8.87179 -6.70634 -7.33548 -8.87179 -9.41976 -7.33548 -7.97271 -9.41976 -9.95665 -7.97271 -8.59877 -9.95665 -10.5183 -8.59877 -9.19539 -10.5183 -11.1115 -9.19539 -9.75855 -11.1115 -11.7197 -9.75855 -10.2957 -11.7197 -12.3247 -10.2957 -10.8185 -12.3247 -12.9152 -10.8185 -11.3341 -12.9152 -13.4854 -11.3341 -11.8463 -13.4854 -14.0349 -11.8463 -12.3554 -14.0349 -14.5698 -12.3554 -12.8577 -14.5698 -15.1101 -12.8577 -13.3462 -15.1101 -15.6812 -13.3462 -13.8199 -15.6812 -16.2715 -13.8199 -14.2771 -16.2715 -16.7982 -14.2771 -14.6991 -16.7982 -17.1762 -14.6991 -15.0769 -1.76066 -2.54381 -1.18355 -1.78724 -2.54381 -3.23791 -1.78724 -2.34701 -3.23791 -3.85762 -2.34701 -2.85296 -3.85762 -4.4222 -2.85296 -3.29136 -2.34701 -2.85296 -1.56854 -1.97747 -2.85296 -3.29136 -1.97747 -2.33872 -1.01737 -1.13423 -0.0141796 -0.0135978 -1.13423 -1.1932 -0.0135978 -0.0135493 -1.35136 -1.35876 -0.00593622 -0.00549759 -2.07807 -2.33778 -0.00290695 -0.00307799 -2.33778 -2.40824 -0.00307799 -0.00318183 -0.19926 -0.112729 0.327179 0.468219 -0.0141796 -0.0135978 0.989242 1.10693 -0.0135978 -0.0135493 1.10693 1.16615 -0.00290695 -0.00307799 2.07181 2.33136 -0.00307799 -0.00318183 2.33136 2.40167 1.55145 1.96075 2.33951 2.84493 1.96075 2.32206 2.84493 3.28263 1.17733 1.78024 1.76312 2.54659 1.78024 2.33951 2.54659 3.24028 2.33951 2.84493 3.24028 3.85894 2.84493 3.28263 3.85894 4.42214 0 0.863083 0 1.50277 0.863083 1.76312 1.50277 2.62102 1.76312 2.54659 2.62102 3.53314 2.54659 3.24028 3.53314 4.30869 3.24028 3.85894 4.30869 4.99598 3.85894 4.42214 4.99598 5.64255 4.42214 4.96748 5.64255 6.28836 4.96748 5.51638 6.28836 6.9563 5.51638 6.0934 6.9563 7.63011 6.0934 6.69889 7.63011 8.27318 6.69889 7.32641 8.27318 8.86184 7.32641 7.96228 8.86184 9.40621 7.96228 8.58738 9.40621 9.93991 8.58738 9.18328 9.93991 10.499 9.18328 9.74591 10.499 11.0901 9.74591 10.2827 11.0901 11.6969 10.2827 10.8051 11.6969 12.3012 10.8051 11.3204 12.3012 12.8918 11.3204 11.8323 12.8918 13.463 11.8323 12.3413 13.463 14.014 12.3413 12.8437 14.014 14.5507 12.8437 13.3323 14.5507 15.093 13.3323 13.8064 15.093 15.666 13.8064 14.264 15.666 16.2576 14.264 14.686 16.2576 16.7845 14.686 15.0638 16.7845 17.1623 -17.1762 -17.3269 -16.1265 -16.2674 -17.3269 -17.4424 -16.2674 -16.421 -16.1265 -16.2674 -15.0769 -15.2511 -16.2674 -16.421 -15.2511 -15.4028 -17.4424 -17.5669 -16.421 -16.5793 -17.5669 -17.6285 -16.5793 -16.7286 -16.421 -16.5793 -15.4028 -15.5371 -16.5793 -16.7286 -15.5371 -15.6608 -17.6285 -17.6983 -16.7286 -16.8211 -17.6983 -18.1438 -16.8211 -16.8502 -16.7286 -16.8211 -15.6608 -15.7829 -16.8211 -16.8502 -15.7829 -15.8757 -18.1438 -18.4169 -16.8502 -17.0351 -18.4169 -18.6215 -17.0351 -17.3153 -16.8502 -17.0351 -15.8757 -15.9421 -17.0351 -17.3153 -15.9421 -16.0292 -18.6215 -18.8393 -17.3153 -17.5346 -18.8393 -19.0284 -17.5346 -17.7289 -17.3153 -17.5346 -16.0292 -16.2823 -17.5346 -17.7289 -16.2823 -16.4769 -19.0284 -19.1942 -17.7289 -17.9046 -19.1942 -19.3424 -17.9046 -18.0631 -17.7289 -17.9046 -16.4769 -16.653 -17.9046 -18.0631 -16.653 -16.8252 -19.3424 -19.4736 -18.0631 -18.2052 -19.4736 -19.5872 -18.2052 -18.3295 -18.0631 -18.2052 -16.8252 -16.976 -18.2052 -18.3295 -16.976 -17.1089 -19.5872 -19.6833 -18.3295 -18.4374 -19.6833 -19.7626 -18.4374 -18.5299 -18.3295 -18.4374 -17.1089 -17.2274 -18.4374 -18.5299 -17.2274 -17.3316 -19.7626 -19.8263 -18.5299 -18.6074 -19.8263 -19.8746 -18.6074 -18.6704 -18.5299 -18.6074 -17.3316 -17.4218 -18.6074 -18.6704 -17.4218 -17.4977 -19.8746 -19.9085 -18.6704 -18.7197 -19.9085 -19.9288 -18.7197 -18.7562 -18.6704 -18.7197 -17.4977 -17.5601 -18.7197 -18.7562 -17.5601 -17.6096 -19.9288 -19.9374 -18.7562 -18.7813 -19.9374 -19.9363 -18.7813 -18.7967 -18.7562 -18.7813 -17.6096 -17.6474 -18.7813 -18.7967 -17.6474 -17.6747 -19.9363 -19.9283 -18.7967 -18.8045 -19.9283 -19.9167 -18.8045 -18.8068 -18.7967 -18.8045 -17.6747 -17.6931 -18.8045 -18.8068 -17.6931 -17.7041 -19.9167 -19.9047 -18.8068 -18.8059 -19.9047 -19.8956 -18.8059 -18.804 -18.8068 -18.8059 -17.7041 -17.7098 -18.8059 -18.804 -17.7098 -17.7121 -19.8956 -19.8911 -18.804 -18.8026 -19.8911 -19.8901 -18.8026 -18.8025 -18.804 -18.8026 -17.7121 -17.7132 -18.8026 -18.8025 -17.7132 -17.7147 0 -0.430853 0 -0.352888 -0.430853 -0.861706 -0.352888 -0.72091 0 -0.352888 0 -0.271636 -0.352888 -0.72091 -0.271636 -0.583641 -0.861706 -1.31118 -0.72091 -1.09056 -1.31118 -1.76066 -1.09056 -1.4721 -0.72091 -1.09056 -0.583641 -0.889606 -1.09056 -1.4721 -0.889606 -1.18355 -4.4222 -4.69565 -3.85678 -4.08107 -4.69565 -4.96909 -4.08107 -4.30694 -3.85678 -4.08107 -3.29136 -3.48997 -4.08107 -4.30694 -3.48997 -3.66143 -4.96909 -5.24446 -4.30694 -4.5424 -5.24446 -5.51982 -4.5424 -4.79101 -4.30694 -4.5424 -3.66143 -3.83743 -4.5424 -4.79101 -3.83743 -4.04677 -5.51982 -5.80932 -4.79101 -5.04637 -5.80932 -6.09883 -5.04637 -5.31018 -4.79101 -5.04637 -4.04677 -4.27202 -5.04637 -5.31018 -4.27202 -4.48604 -6.09883 -6.40258 -5.31018 -5.59932 -6.40258 -6.70634 -5.59932 -5.91199 -5.31018 -5.59932 -4.48604 -4.74851 -5.59932 -5.91199 -4.74851 -5.0735 -6.70634 -7.02091 -5.91199 -6.23277 -7.02091 -7.33548 -6.23277 -6.56274 -5.91199 -6.23277 -5.0735 -5.42361 -6.23277 -6.56274 -5.42361 -5.76107 -7.33548 -7.65409 -6.56274 -6.90623 -7.65409 -7.97271 -6.90623 -7.25734 -6.56274 -6.90623 -5.76107 -6.14495 -6.90623 -7.25734 -6.14495 -6.55688 -7.97271 -8.28574 -7.25734 -7.60593 -8.28574 -8.59877 -7.60593 -7.94207 -7.25734 -7.60593 -6.55688 -6.96003 -7.60593 -7.94207 -6.96003 -7.3338 -8.59877 -8.89708 -7.94207 -8.25939 -8.89708 -9.19539 -8.25939 -8.55664 -7.94207 -8.25939 -7.3338 -7.66543 -8.25939 -8.55664 -7.66543 -7.95587 -9.19539 -9.47697 -8.55664 -8.83199 -9.47697 -9.75855 -8.83199 -9.09593 -8.55664 -8.83199 -7.95587 -8.20724 -8.83199 -9.09593 -8.20724 -8.44707 -9.75855 -10.0271 -9.09593 -9.34665 -10.0271 -10.2957 -9.34665 -9.59247 -9.09593 -9.34665 -8.44707 -8.67284 -9.34665 -9.59247 -8.67284 -8.89331 -10.2957 -10.5571 -9.59247 -9.83292 -10.5571 -10.8185 -9.83292 -10.0709 -9.59247 -9.83292 -8.89331 -9.10962 -9.83292 -10.0709 -9.10962 -9.32114 -10.8185 -11.0763 -10.0709 -10.309 -11.0763 -11.3341 -10.309 -10.5482 -10.0709 -10.309 -9.32114 -9.53754 -10.309 -10.5482 -9.53754 -9.75837 -11.3341 -11.5902 -10.5482 -10.7888 -11.5902 -11.8463 -10.7888 -11.0312 -10.5482 -10.7888 -9.75837 -9.98327 -10.7888 -11.0312 -9.98327 -10.2122 -11.8463 -12.1009 -11.0312 -11.275 -12.1009 -12.3554 -11.275 -11.5199 -11.0312 -11.275 -10.2122 -10.445 -11.275 -11.5199 -10.445 -10.6817 -12.3554 -12.6066 -11.5199 -11.7646 -12.6066 -12.8577 -11.7646 -12.0068 -11.5199 -11.7646 -10.6817 -10.9217 -11.7646 -12.0068 -10.9217 -11.1631 -12.8577 -13.1019 -12.0068 -12.2446 -13.1019 -13.3462 -12.2446 -12.4736 -12.0068 -12.2446 -11.1631 -11.4009 -12.2446 -12.4736 -11.4009 -11.6297 -13.3462 -13.583 -12.4736 -12.6961 -13.583 -13.8199 -12.6961 -12.9096 -12.4736 -12.6961 -11.6297 -11.8454 -12.6961 -12.9096 -11.8454 -12.0469 -13.8199 -14.0485 -12.9096 -13.1206 -14.0485 -14.2771 -13.1206 -13.3223 -12.9096 -13.1206 -12.0469 -12.2307 -13.1206 -13.3223 -12.2307 -12.4003 -14.2771 -14.4881 -13.3223 -13.5185 -14.4881 -14.6991 -13.5185 -13.7063 -13.3223 -13.5185 -12.4003 -12.5609 -13.5185 -13.7063 -12.5609 -12.7187 -14.6991 -14.888 -13.7063 -13.8863 -14.888 -15.0769 -13.8863 -14.054 -13.7063 -13.8863 -12.7187 -12.8734 -13.8863 -14.054 -12.8734 -13.0191 -15.0769 -15.2511 -14.054 -14.2046 -15.2511 -15.4028 -14.2046 -14.3426 -14.054 -14.2046 -13.0191 -13.153 -14.2046 -14.3426 -13.153 -13.279 -15.4028 -15.5371 -14.3426 -14.4736 -15.5371 -15.6608 -14.4736 -14.5966 -14.3426 -14.4736 -13.279 -13.4015 -14.4736 -14.5966 -13.4015 -13.5238 -15.6608 -15.7829 -14.5966 -14.7078 -15.7829 -15.8757 -14.7078 -14.8303 -14.5966 -14.7078 -13.5238 -13.6472 -14.7078 -14.8303 -13.6472 -13.7766 -15.8757 -15.9421 -14.8303 -14.9839 -15.9421 -16.0292 -14.9839 -15.0638 -14.8303 -14.9839 -13.7766 -13.9003 -14.9839 -15.0638 -13.9003 -14.024 -16.0292 -16.2823 -15.0638 -15.0657 -16.2823 -16.4769 -15.0657 -15.2489 -15.0638 -15.0657 -14.024 -14.1222 -15.0657 -15.2489 -14.1222 -14.1992 -16.4769 -16.653 -15.2489 -15.4528 -16.653 -16.8252 -15.4528 -15.6279 -15.2489 -15.4528 -14.1992 -14.2606 -15.4528 -15.6279 -14.2606 -14.4577 -16.8252 -16.976 -15.6279 -15.7811 -16.976 -17.1089 -15.7811 -15.9225 -15.6279 -15.7811 -14.4577 -14.6191 -15.7811 -15.9225 -14.6191 -14.7633 -17.1089 -17.2274 -15.9225 -16.0506 -17.2274 -17.3316 -16.0506 -16.1668 -15.9225 -16.0506 -14.7633 -14.9088 -16.0506 -16.1668 -14.9088 -15.0351 -17.3316 -17.4218 -16.1668 -16.2682 -17.4218 -17.4977 -16.2682 -16.3553 -16.1668 -16.2682 -15.0351 -15.1454 -16.2682 -16.3553 -15.1454 -15.2423 -17.4977 -17.5601 -16.3553 -16.4286 -17.5601 -17.6096 -16.4286 -16.4887 -16.3553 -16.4286 -15.2423 -15.3248 -16.4286 -16.4887 -15.3248 -15.3935 -17.6096 -17.6474 -16.4887 -16.5363 -17.6474 -17.6747 -16.5363 -16.5723 -16.4887 -16.5363 -15.3935 -15.449 -16.5363 -16.5723 -15.449 -15.4918 -17.6747 -17.6931 -16.5723 -16.5979 -17.6931 -17.7041 -16.5979 -16.6145 -16.5723 -16.5979 -15.4918 -15.5226 -16.5979 -16.6145 -15.5226 -15.5427 -17.7041 -17.7098 -16.6145 -16.6239 -17.7098 -17.7121 -16.6239 -16.6283 -16.6145 -16.6239 -15.5427 -15.5539 -16.6239 -16.6283 -15.5539 -15.5589 -17.7121 -17.7132 -16.6283 -16.6304 -17.7132 -17.7147 -16.6304 -16.6328 -16.6283 -16.6304 -15.5589 -15.5607 -16.6304 -16.6328 -15.5607 -15.5634 0 -0.271636 0 -0.204178 -0.271636 -0.583641 -0.204178 -0.454921 0 -0.204178 0 -0.110799 -0.204178 -0.454921 -0.110799 -0.266632 -0.583641 -0.889606 -0.454921 -0.68735 -0.889606 -1.18355 -0.68735 -0.942153 -0.454921 -0.68735 -0.266632 -0.477129 -0.68735 -0.942153 -0.477129 -0.716512 -1.18355 -1.4854 -0.942153 -1.20352 -1.4854 -1.78724 -1.20352 -1.45625 -0.942153 -1.20352 -0.716512 -0.925098 -1.20352 -1.45625 -0.925098 -1.13963 -1.78724 -2.06713 -1.45625 -1.70816 -2.06713 -2.34701 -1.70816 -1.95778 -1.45625 -1.70816 -1.13963 -1.35945 -1.70816 -1.95778 -1.35945 -1.56854 -3.29136 -3.48997 -2.81504 -2.96726 -3.48997 -3.66143 -2.96726 -3.10646 -2.81504 -2.96726 -2.33872 -2.5048 -2.96726 -3.10646 -2.5048 -2.64937 -3.66143 -3.83743 -3.10646 -3.22569 -3.83743 -4.04677 -3.22569 -3.34948 -3.10646 -3.22569 -2.64937 -2.77644 -3.22569 -3.34948 -2.77644 -2.90205 -4.04677 -4.27202 -3.34948 -3.51559 -4.27202 -4.48604 -3.51559 -3.71741 -3.34948 -3.51559 -2.90205 -3.03459 -3.51559 -3.71741 -3.03459 -3.17031 -4.48604 -4.74851 -3.71741 -3.92116 -4.74851 -5.0735 -3.92116 -4.12812 -3.71741 -3.92116 -3.17031 -3.30279 -3.92116 -4.12812 -3.30279 -3.40295 -5.0735 -5.42361 -4.12812 -4.45433 -5.42361 -5.76107 -4.45433 -4.93137 -4.12812 -4.45433 -3.40295 -3.45646 -4.45433 -4.93137 -3.45646 -3.63645 -5.76107 -6.14495 -4.93137 -5.36205 -6.14495 -6.55688 -5.36205 -5.87791 -4.93137 -5.36205 -3.63645 -4.3163 -5.36205 -5.87791 -4.3163 -5.49159 -6.55688 -6.96003 -5.87791 -6.36803 -6.96003 -7.3338 -6.36803 -6.75418 -5.87791 -6.36803 -5.49159 -6.03001 -6.36803 -6.75418 -6.03001 -6.31283 -7.3338 -7.66543 -6.75418 -7.10078 -7.66543 -7.95587 -7.10078 -7.3522 -6.75418 -7.10078 -6.31283 -6.52559 -7.10078 -7.3522 -6.52559 -6.77949 -7.95587 -8.20724 -7.3522 -7.58369 -8.20724 -8.44707 -7.58369 -7.7883 -7.3522 -7.58369 -6.77949 -6.92257 -7.58369 -7.7883 -6.92257 -7.14496 -8.44707 -8.67284 -7.7883 -7.9945 -8.67284 -8.89331 -7.9945 -8.18659 -7.7883 -7.9945 -7.14496 -7.29505 -7.9945 -8.18659 -7.29505 -7.48293 -8.89331 -9.10962 -8.18659 -8.38087 -9.10962 -9.32114 -8.38087 -8.56699 -8.18659 -8.38087 -7.48293 -7.64534 -8.38087 -8.56699 -7.64534 -7.81158 -9.32114 -9.53754 -8.56699 -8.76227 -9.53754 -9.75837 -8.76227 -8.96492 -8.56699 -8.76227 -7.81158 -7.98661 -8.76227 -8.96492 -7.98661 -8.17096 -9.75837 -9.98327 -8.96492 -9.17409 -9.98327 -10.2122 -9.17409 -9.38953 -8.96492 -9.17409 -8.17096 -8.36444 -9.17409 -9.38953 -8.36444 -8.56648 -10.2122 -10.445 -9.38953 -9.61138 -10.445 -10.6817 -9.61138 -9.84063 -9.38953 -9.61138 -8.56648 -8.77753 -9.61138 -9.84063 -8.77753 -9.00019 -10.6817 -10.9217 -9.84063 -10.0804 -10.9217 -11.1631 -10.0804 -10.3315 -9.84063 -10.0804 -9.00019 -9.24652 -10.0804 -10.3315 -9.24652 -9.5207 -11.1631 -11.4009 -10.3315 -10.5859 -11.4009 -11.6297 -10.5859 -10.8363 -10.3315 -10.5859 -9.5207 -9.83885 -10.5859 -10.8363 -9.83885 -10.202 -11.6297 -11.8454 -10.8363 -11.0719 -11.8454 -12.0469 -11.0719 -11.2552 -10.8363 -11.0719 -10.202 -10.4077 -11.0719 -11.2552 -10.4077 -10.5089 -12.0469 -12.2307 -11.2552 -11.3906 -12.2307 -12.4003 -11.3906 -11.5048 -11.2552 -11.3906 -10.5089 -10.5758 -11.3906 -11.5048 -10.5758 -10.628 -12.4003 -12.5609 -11.5048 -11.6118 -12.5609 -12.7187 -11.6118 -11.7188 -11.5048 -11.6118 -10.628 -10.6724 -11.6118 -11.7188 -10.6724 -10.7119 -12.7187 -12.8734 -11.7188 -11.8311 -12.8734 -13.0191 -11.8311 -11.9515 -11.7188 -11.8311 -10.7119 -10.7552 -11.8311 -11.9515 -10.7552 -10.8286 -13.0191 -13.153 -11.9515 -12.0745 -13.153 -13.279 -12.0745 -12.1958 -11.9515 -12.0745 -10.8286 -10.9444 -12.0745 -12.1958 -10.9444 -11.0845 -13.279 -13.4015 -12.1958 -12.3205 -13.4015 -13.5238 -12.3205 -12.4491 -12.1958 -12.3205 -11.0845 -11.2266 -12.3205 -12.4491 -11.2266 -11.365 -13.5238 -13.6472 -12.4491 -12.5777 -13.6472 -13.7766 -12.5777 -12.7085 -12.4491 -12.5777 -11.365 -11.5022 -12.5777 -12.7085 -11.5022 -11.6388 -13.7766 -13.9003 -12.7085 -12.8376 -13.9003 -14.024 -12.8376 -12.9573 -12.7085 -12.8376 -11.6388 -11.7749 -12.8376 -12.9573 -11.7749 -11.9119 -14.024 -14.1222 -12.9573 -13.0904 -14.1222 -14.1992 -13.0904 -13.2502 -12.9573 -13.0904 -11.9119 -12.0539 -13.0904 -13.2502 -12.0539 -12.1865 -14.1992 -14.2606 -13.2502 -13.3345 -14.2606 -14.4577 -13.3345 -13.3164 -13.2502 -13.3345 -12.1865 -12.3195 -13.3345 -13.3164 -12.3195 -12.4516 -14.4577 -14.6191 -13.3164 -13.4461 -14.6191 -14.7633 -13.4461 -13.6523 -13.3164 -13.4461 -12.4516 -12.5572 -13.4461 -13.6523 -12.5572 -12.577 -14.7633 -14.9088 -13.6523 -13.806 -14.9088 -15.0351 -13.806 -13.933 -13.6523 -13.806 -12.577 -12.7266 -13.806 -13.933 -12.7266 -12.8612 -15.0351 -15.1454 -13.933 -14.053 -15.1454 -15.2423 -14.053 -14.1583 -13.933 -14.053 -12.8612 -12.9916 -14.053 -14.1583 -12.9916 -13.1015 -15.2423 -15.3248 -14.1583 -14.2481 -15.3248 -15.3935 -14.2481 -14.3243 -14.1583 -14.2481 -13.1015 -13.1971 -14.2481 -14.3243 -13.1971 -13.2804 -15.3935 -15.449 -14.3243 -14.3868 -15.449 -15.4918 -14.3868 -14.4355 -14.3243 -14.3868 -13.2804 -13.3508 -14.3868 -14.4355 -13.3508 -13.405 -15.4918 -15.5226 -14.4355 -14.4704 -15.5226 -15.5427 -14.4704 -14.4927 -14.4355 -14.4704 -13.405 -13.4436 -14.4704 -14.4927 -13.4436 -13.4681 -15.5427 -15.5539 -14.4927 -14.5047 -15.5539 -15.5589 -14.5047 -14.5091 -14.4927 -14.5047 -13.4681 -13.4803 -14.5047 -14.5091 -13.4803 -13.4834 -15.5589 -15.5607 -14.5091 -14.5098 -15.5607 -15.5634 -14.5098 -14.5117 -14.5091 -14.5098 -13.4834 -13.4822 -14.5098 -14.5117 -13.4822 -13.4822 0 -0.110799 0 -0.0903328 -0.110799 -0.266632 -0.0903328 -0.0583821 0 -0.0903328 0 -0.105822 -0.0903328 -0.0583821 -0.105822 -0.236126 -0.266632 -0.477129 -0.0583821 -0.267635 -0.477129 -0.716512 -0.267635 -0.457217 -0.0583821 -0.267635 -0.236126 -0.394584 -0.267635 -0.457217 -0.394584 -0.224625 -0.716512 -0.925098 -0.457217 -0.643891 -0.925098 -1.13963 -0.643891 -0.83668 -0.457217 -0.643891 -0.224625 -0.34673 -0.643891 -0.83668 -0.34673 -0.502215 -1.13963 -1.35945 -0.83668 -1.01471 -1.35945 -1.56854 -1.01471 -1.2009 -0.83668 -1.01471 -0.502215 -0.668873 -1.01471 -1.2009 -0.668873 -0.847464 -1.56854 -1.773 -1.2009 -1.39284 -1.773 -1.97747 -1.39284 -1.57404 -1.2009 -1.39284 -0.847464 -1.01116 -1.39284 -1.57404 -1.01116 -1.18196 -1.97747 -2.1581 -1.57404 -1.75138 -2.1581 -2.33872 -1.75138 -1.9206 -1.57404 -1.75138 -1.18196 -1.3572 -1.75138 -1.9206 -1.3572 -1.52358 -2.33872 -2.5048 -1.9206 -2.08217 -2.5048 -2.64937 -2.08217 -2.23669 -1.9206 -2.08217 -1.52358 -1.6864 -2.08217 -2.23669 -1.6864 -1.84779 -2.64937 -2.77644 -2.23669 -2.3849 -2.77644 -2.90205 -2.3849 -2.53203 -2.23669 -2.3849 -1.84779 -2.00657 -2.3849 -2.53203 -2.00657 -2.16259 -2.90205 -3.03459 -2.53203 -2.67325 -3.03459 -3.17031 -2.67325 -2.80954 -2.53203 -2.67325 -2.16259 -2.31824 -2.67325 -2.80954 -2.31824 -2.47958 -3.17031 -3.30279 -2.80954 -2.95085 -3.30279 -3.40295 -2.95085 -3.09258 -2.80954 -2.95085 -2.47958 -2.6395 -2.95085 -3.09258 -2.6395 -2.79798 -3.40295 -3.45646 -3.09258 -3.27115 -3.45646 -3.63645 -3.27115 -3.43581 -3.09258 -3.27115 -2.79798 -2.97224 -3.27115 -3.43581 -2.97224 -3.14632 -3.63645 -4.3163 -3.43581 -3.35257 -4.3163 -5.49159 -3.35257 -3.52078 -3.43581 -3.35257 -3.14632 -3.32166 -3.35257 -3.52078 -3.32166 -3.4845 -5.49159 -6.03001 -3.52078 -4.38119 -6.03001 -6.31283 -4.38119 -4.98796 -3.52078 -4.38119 -3.4845 -3.38292 -4.38119 -4.98796 -3.38292 -3.41012 -6.31283 -6.52559 -4.98796 -5.33578 -6.52559 -6.77949 -5.33578 -5.64979 -4.98796 -5.33578 -3.41012 -4.1416 -5.33578 -5.64979 -4.1416 -4.61899 -6.77949 -6.92257 -5.64979 -5.98258 -6.92257 -7.14496 -5.98258 -6.25228 -5.64979 -5.98258 -4.61899 -5.00476 -5.98258 -6.25228 -5.00476 -5.33823 -7.14496 -7.29505 -6.25228 -6.49847 -7.29505 -7.48293 -6.49847 -6.71822 -6.25228 -6.49847 -5.33823 -5.63135 -6.49847 -6.71822 -5.63135 -5.92617 -7.48293 -7.64534 -6.71822 -6.94056 -7.64534 -7.81158 -6.94056 -7.16451 -6.71822 -6.94056 -5.92617 -6.18814 -6.94056 -7.16451 -6.18814 -6.46563 -7.81158 -7.98661 -7.16451 -7.39662 -7.98661 -8.17096 -7.39662 -7.63214 -7.16451 -7.39662 -6.46563 -6.75342 -7.39662 -7.63214 -6.75342 -7.03609 -8.17096 -8.36444 -7.63214 -7.86722 -8.36444 -8.56648 -7.86722 -8.10369 -7.63214 -7.86722 -7.03609 -7.30599 -7.86722 -8.10369 -7.30599 -7.56403 -8.56648 -8.77753 -8.10369 -8.3529 -8.77753 -9.00019 -8.3529 -8.6452 -8.10369 -8.3529 -7.56403 -7.81141 -8.3529 -8.6452 -7.81141 -8.06766 -9.00019 -9.24652 -8.6452 -9.14121 -9.24652 -9.5207 -9.14121 -9.36656 -8.6452 -9.14121 -8.06766 -8.32292 -9.14121 -9.36656 -8.32292 -8.6503 -9.5207 -9.83885 -9.36656 -9.56836 -9.83885 -10.202 -9.56836 -9.63359 -9.36656 -9.56836 -8.6503 -8.81047 -9.56836 -9.63359 -8.81047 -8.87341 -10.202 -10.4077 -9.63359 -9.6948 -10.4077 -10.5089 -9.6948 -9.73525 -9.63359 -9.6948 -8.87341 -8.90553 -9.6948 -9.73525 -8.90553 -8.91765 -10.5089 -10.5758 -9.73525 -9.75483 -10.5758 -10.628 -9.75483 -9.75901 -9.73525 -9.75483 -8.91765 -8.91235 -9.75483 -9.75901 -8.91235 -8.88574 -10.628 -10.6724 -9.75901 -9.749 -10.6724 -10.7119 -9.749 -9.72562 -9.75901 -9.749 -8.88574 -8.84039 -9.749 -9.72562 -8.84039 -8.77606 -10.7119 -10.7552 -9.72562 -9.68483 -10.7552 -10.8286 -9.68483 -9.65834 -9.72562 -9.68483 -8.77606 -8.69322 -9.68483 -9.65834 -8.69322 -8.53556 -10.8286 -10.9444 -9.65834 -9.78674 -10.9444 -11.0845 -9.78674 -9.96769 -9.65834 -9.78674 -8.53556 -8.63123 -9.78674 -9.96769 -8.63123 -8.83428 -11.0845 -11.2266 -9.96769 -10.1153 -11.2266 -11.365 -10.1153 -10.2697 -9.96769 -10.1153 -8.83428 -9.01051 -10.1153 -10.2697 -9.01051 -9.18939 -11.365 -11.5022 -10.2697 -10.4263 -11.5022 -11.6388 -10.4263 -10.5741 -10.2697 -10.4263 -9.18939 -9.34961 -10.4263 -10.5741 -9.34961 -9.50893 -11.6388 -11.7749 -10.5741 -10.7194 -11.7749 -11.9119 -10.7194 -10.8633 -10.5741 -10.7194 -9.50893 -9.66783 -10.7194 -10.8633 -9.66783 -9.81874 -11.9119 -12.0539 -10.8633 -11.0082 -12.0539 -12.1865 -11.0082 -11.1486 -10.8633 -11.0082 -9.81874 -9.96625 -11.0082 -11.1486 -9.96625 -10.1114 -12.1865 -12.3195 -11.1486 -11.2822 -12.3195 -12.4516 -11.2822 -11.4249 -11.1486 -11.2822 -10.1114 -10.2578 -11.2822 -11.4249 -10.2578 -10.4036 -12.4516 -12.5572 -11.4249 -11.5752 -12.5572 -12.577 -11.5752 -11.6657 -11.4249 -11.5752 -10.4036 -10.535 -11.5752 -11.6657 -10.535 -10.6766 -12.577 -12.7266 -11.6657 -11.696 -12.7266 -12.8612 -11.696 -11.8151 -11.6657 -11.696 -10.6766 -10.8462 -11.696 -11.8151 -10.8462 -10.9363