# vtk DataFile Version 3.0
#This file was generated by the deal.II library on 2015/8/30 at 10:13:44
ASCII
DATASET UNSTRUCTURED_GRID

POINTS 8 double
0 0 0
1 0 0
0 1 0
1 1 0
1 0 0
2 0 0
1 1 0
2 1 0

CELLS 2 10
4	0	1	3	2
4	4	5	7	6

CELL_TYPES 2
 9 9
POINT_DATA 8
SCALARS x_displacement double 1
LOOKUP_TABLE default
0 -36.4454 0 36.4454 -36.4454 -71.1388 36.4454 71.1388 
SCALARS y_displacement double 1
LOOKUP_TABLE default
0 -47.6818 0 -47.6818 -47.6818 -202.318 -47.6818 -202.318 
