# vtk DataFile Version 3.0
#This file was generated by the deal.II library on 2015/9/1 at 17:12:58
ASCII
DATASET UNSTRUCTURED_GRID

POINTS 11912 double
0 0 0
0.05 0 0
0 0.05 0
0.05 0.05 0
0.05 0 0
0.1 0 0
0.05 0.05 0
0.1 0.05 0
0.1 0 0
0.15 0 0
0.1 0.05 0
0.15 0.05 0
0.15 0 0
0.2 0 0
0.15 0.05 0
0.2 0.05 0
0.2 0 0
0.25 0 0
0.2 0.05 0
0.25 0.05 0
0.25 0 0
0.3 0 0
0.25 0.05 0
0.3 0.05 0
0.3 0 0
0.35 0 0
0.3 0.05 0
0.35 0.05 0
0.35 0 0
0.4 0 0
0.35 0.05 0
0.4 0.05 0
0.4 0 0
0.45 0 0
0.4 0.05 0
0.45 0.05 0
0.45 0 0
0.5 0 0
0.45 0.05 0
0.5 0.05 0
0.5 0 0
0.55 0 0
0.5 0.05 0
0.55 0.05 0
0.55 0 0
0.6 0 0
0.55 0.05 0
0.6 0.05 0
0.6 0 0
0.65 0 0
0.6 0.05 0
0.65 0.05 0
0.65 0 0
0.7 0 0
0.65 0.05 0
0.7 0.05 0
0.7 0 0
0.75 0 0
0.7 0.05 0
0.75 0.05 0
0.75 0 0
0.8 0 0
0.75 0.05 0
0.8 0.05 0
0.8 0 0
0.85 0 0
0.8 0.05 0
0.85 0.05 0
0.85 0 0
0.9 0 0
0.85 0.05 0
0.9 0.05 0
0.9 0 0
0.95 0 0
0.9 0.05 0
0.95 0.05 0
0.95 0 0
1 0 0
0.95 0.05 0
1 0.05 0
1 0 0
1.05 0 0
1 0.05 0
1.05 0.05 0
1.05 0 0
1.1 0 0
1.05 0.05 0
1.1 0.05 0
1.1 0 0
1.15 0 0
1.1 0.05 0
1.15 0.05 0
1.15 0 0
1.2 0 0
1.15 0.05 0
1.2 0.05 0
1.2 0 0
1.25 0 0
1.2 0.05 0
1.25 0.05 0
1.25 0 0
1.3 0 0
1.25 0.05 0
1.3 0.05 0
0.1 0.05 0
0.15 0.05 0
0.1 0.1 0
0.15 0.1 0
0.15 0.05 0
0.2 0.05 0
0.15 0.1 0
0.2 0.1 0
0.2 0.05 0
0.25 0.05 0
0.2 0.1 0
0.25 0.1 0
0.25 0.05 0
0.3 0.05 0
0.25 0.1 0
0.3 0.1 0
0.2 0.1 0
0.25 0.1 0
0.2 0.15 0
0.25 0.15 0
0.25 0.1 0
0.3 0.1 0
0.25 0.15 0
0.3 0.15 0
0.85 0.45 0
0.9 0.45 0
0.85 0.5 0
0.9 0.5 0
0.9 0.45 0
0.95 0.45 0
0.9 0.5 0
0.95 0.5 0
1.45 0.45 0
1.5 0.45 0
1.45 0.5 0
1.5 0.5 0
1.9 0.45 0
1.95 0.45 0
1.9 0.5 0
1.95 0.5 0
1.95 0.45 0
2 0.45 0
1.95 0.5 0
2 0.5 0
0.65 0.5 0
0.7 0.5 0
0.65 0.55 0
0.7 0.55 0
0.85 0.5 0
0.9 0.5 0
0.85 0.55 0
0.9 0.55 0
0.9 0.5 0
0.95 0.5 0
0.9 0.55 0
0.95 0.55 0
1.9 0.5 0
1.95 0.5 0
1.9 0.55 0
1.95 0.55 0
1.95 0.5 0
2 0.5 0
1.95 0.55 0
2 0.55 0
0.2 0.85 0
0.25 0.85 0
0.2 0.9 0
0.25 0.9 0
0.25 0.85 0
0.3 0.85 0
0.25 0.9 0
0.3 0.9 0
0.1 0.9 0
0.15 0.9 0
0.1 0.95 0
0.15 0.95 0
0.15 0.9 0
0.2 0.9 0
0.15 0.95 0
0.2 0.95 0
0.2 0.9 0
0.25 0.9 0
0.2 0.95 0
0.25 0.95 0
0.25 0.9 0
0.3 0.9 0
0.25 0.95 0
0.3 0.95 0
0 0.95 0
0.05 0.95 0
0 1 0
0.05 1 0
0.05 0.95 0
0.1 0.95 0
0.05 1 0
0.1 1 0
0.1 0.95 0
0.15 0.95 0
0.1 1 0
0.15 1 0
0.15 0.95 0
0.2 0.95 0
0.15 1 0
0.2 1 0
0.2 0.95 0
0.25 0.95 0
0.2 1 0
0.25 1 0
0.25 0.95 0
0.3 0.95 0
0.25 1 0
0.3 1 0
0.3 0.95 0
0.35 0.95 0
0.3 1 0
0.35 1 0
0.35 0.95 0
0.4 0.95 0
0.35 1 0
0.4 1 0
0.4 0.95 0
0.45 0.95 0
0.4 1 0
0.45 1 0
0.45 0.95 0
0.5 0.95 0
0.45 1 0
0.5 1 0
0.5 0.95 0
0.55 0.95 0
0.5 1 0
0.55 1 0
0.55 0.95 0
0.6 0.95 0
0.55 1 0
0.6 1 0
0.6 0.95 0
0.65 0.95 0
0.6 1 0
0.65 1 0
0.65 0.95 0
0.7 0.95 0
0.65 1 0
0.7 1 0
0.7 0.95 0
0.75 0.95 0
0.7 1 0
0.75 1 0
0.75 0.95 0
0.8 0.95 0
0.75 1 0
0.8 1 0
0.8 0.95 0
0.85 0.95 0
0.8 1 0
0.85 1 0
0.85 0.95 0
0.9 0.95 0
0.85 1 0
0.9 1 0
0.9 0.95 0
0.95 0.95 0
0.9 1 0
0.95 1 0
0.95 0.95 0
1 0.95 0
0.95 1 0
1 1 0
1 0.95 0
1.05 0.95 0
1 1 0
1.05 1 0
1.05 0.95 0
1.1 0.95 0
1.05 1 0
1.1 1 0
1.1 0.95 0
1.15 0.95 0
1.1 1 0
1.15 1 0
1.15 0.95 0
1.2 0.95 0
1.15 1 0
1.2 1 0
1.2 0.95 0
1.25 0.95 0
1.2 1 0
1.25 1 0
1.25 0.95 0
1.3 0.95 0
1.25 1 0
1.3 1 0
1.3 0 0
1.325 0 0
1.3 0.025 0
1.325 0.025 0
1.325 0 0
1.35 0 0
1.325 0.025 0
1.35 0.025 0
1.3 0.025 0
1.325 0.025 0
1.3 0.05 0
1.325 0.05 0
1.325 0.025 0
1.35 0.025 0
1.325 0.05 0
1.35 0.05 0
1.35 0 0
1.375 0 0
1.35 0.025 0
1.375 0.025 0
1.375 0 0
1.4 0 0
1.375 0.025 0
1.4 0.025 0
1.35 0.025 0
1.375 0.025 0
1.35 0.05 0
1.375 0.05 0
1.375 0.025 0
1.4 0.025 0
1.375 0.05 0
1.4 0.05 0
1.4 0 0
1.425 0 0
1.4 0.025 0
1.425 0.025 0
1.425 0 0
1.45 0 0
1.425 0.025 0
1.45 0.025 0
1.4 0.025 0
1.425 0.025 0
1.4 0.05 0
1.425 0.05 0
1.425 0.025 0
1.45 0.025 0
1.425 0.05 0
1.45 0.05 0
1.45 0 0
1.475 0 0
1.45 0.025 0
1.475 0.025 0
1.475 0 0
1.5 0 0
1.475 0.025 0
1.5 0.025 0
1.45 0.025 0
1.475 0.025 0
1.45 0.05 0
1.475 0.05 0
1.475 0.025 0
1.5 0.025 0
1.475 0.05 0
1.5 0.05 0
1.5 0 0
1.525 0 0
1.5 0.025 0
1.525 0.025 0
1.525 0 0
1.55 0 0
1.525 0.025 0
1.55 0.025 0
1.5 0.025 0
1.525 0.025 0
1.5 0.05 0
1.525 0.05 0
1.525 0.025 0
1.55 0.025 0
1.525 0.05 0
1.55 0.05 0
1.55 0 0
1.575 0 0
1.55 0.025 0
1.575 0.025 0
1.575 0 0
1.6 0 0
1.575 0.025 0
1.6 0.025 0
1.55 0.025 0
1.575 0.025 0
1.55 0.05 0
1.575 0.05 0
1.575 0.025 0
1.6 0.025 0
1.575 0.05 0
1.6 0.05 0
1.6 0 0
1.625 0 0
1.6 0.025 0
1.625 0.025 0
1.625 0 0
1.65 0 0
1.625 0.025 0
1.65 0.025 0
1.6 0.025 0
1.625 0.025 0
1.6 0.05 0
1.625 0.05 0
1.625 0.025 0
1.65 0.025 0
1.625 0.05 0
1.65 0.05 0
1.65 0 0
1.675 0 0
1.65 0.025 0
1.675 0.025 0
1.675 0 0
1.7 0 0
1.675 0.025 0
1.7 0.025 0
1.65 0.025 0
1.675 0.025 0
1.65 0.05 0
1.675 0.05 0
1.675 0.025 0
1.7 0.025 0
1.675 0.05 0
1.7 0.05 0
1.7 0 0
1.725 0 0
1.7 0.025 0
1.725 0.025 0
1.725 0 0
1.75 0 0
1.725 0.025 0
1.75 0.025 0
1.7 0.025 0
1.725 0.025 0
1.7 0.05 0
1.725 0.05 0
1.725 0.025 0
1.75 0.025 0
1.725 0.05 0
1.75 0.05 0
1.75 0 0
1.775 0 0
1.75 0.025 0
1.775 0.025 0
1.775 0 0
1.8 0 0
1.775 0.025 0
1.8 0.025 0
1.75 0.025 0
1.775 0.025 0
1.75 0.05 0
1.775 0.05 0
1.775 0.025 0
1.8 0.025 0
1.775 0.05 0
1.8 0.05 0
1.8 0 0
1.825 0 0
1.8 0.025 0
1.825 0.025 0
1.825 0 0
1.85 0 0
1.825 0.025 0
1.85 0.025 0
1.8 0.025 0
1.825 0.025 0
1.8 0.05 0
1.825 0.05 0
1.825 0.025 0
1.85 0.025 0
1.825 0.05 0
1.85 0.05 0
1.85 0 0
1.875 0 0
1.85 0.025 0
1.875 0.025 0
1.875 0 0
1.9 0 0
1.875 0.025 0
1.9 0.025 0
1.85 0.025 0
1.875 0.025 0
1.85 0.05 0
1.875 0.05 0
1.875 0.025 0
1.9 0.025 0
1.875 0.05 0
1.9 0.05 0
1.9 0 0
1.925 0 0
1.9 0.025 0
1.925 0.025 0
1.925 0 0
1.95 0 0
1.925 0.025 0
1.95 0.025 0
1.9 0.025 0
1.925 0.025 0
1.9 0.05 0
1.925 0.05 0
1.925 0.025 0
1.95 0.025 0
1.925 0.05 0
1.95 0.05 0
1.95 0 0
1.975 0 0
1.95 0.025 0
1.975 0.025 0
1.975 0 0
2 0 0
1.975 0.025 0
2 0.025 0
1.95 0.025 0
1.975 0.025 0
1.95 0.05 0
1.975 0.05 0
1.975 0.025 0
2 0.025 0
1.975 0.05 0
2 0.05 0
0 0.05 0
0.025 0.05 0
0 0.075 0
0.025 0.075 0
0.025 0.05 0
0.05 0.05 0
0.025 0.075 0
0.05 0.075 0
0 0.075 0
0.025 0.075 0
0 0.1 0
0.025 0.1 0
0.025 0.075 0
0.05 0.075 0
0.025 0.1 0
0.05 0.1 0
0.05 0.05 0
0.075 0.05 0
0.05 0.075 0
0.075 0.075 0
0.075 0.05 0
0.1 0.05 0
0.075 0.075 0
0.1 0.075 0
0.05 0.075 0
0.075 0.075 0
0.05 0.1 0
0.075 0.1 0
0.075 0.075 0
0.1 0.075 0
0.075 0.1 0
0.1 0.1 0
0.3 0.05 0
0.325 0.05 0
0.3 0.075 0
0.325 0.075 0
0.325 0.05 0
0.35 0.05 0
0.325 0.075 0
0.35 0.075 0
0.3 0.075 0
0.325 0.075 0
0.3 0.1 0
0.325 0.1 0
0.325 0.075 0
0.35 0.075 0
0.325 0.1 0
0.35 0.1 0
0.35 0.05 0
0.375 0.05 0
0.35 0.075 0
0.375 0.075 0
0.375 0.05 0
0.4 0.05 0
0.375 0.075 0
0.4 0.075 0
0.35 0.075 0
0.375 0.075 0
0.35 0.1 0
0.375 0.1 0
0.375 0.075 0
0.4 0.075 0
0.375 0.1 0
0.4 0.1 0
0.4 0.05 0
0.425 0.05 0
0.4 0.075 0
0.425 0.075 0
0.425 0.05 0
0.45 0.05 0
0.425 0.075 0
0.45 0.075 0
0.4 0.075 0
0.425 0.075 0
0.4 0.1 0
0.425 0.1 0
0.425 0.075 0
0.45 0.075 0
0.425 0.1 0
0.45 0.1 0
0.45 0.05 0
0.475 0.05 0
0.45 0.075 0
0.475 0.075 0
0.475 0.05 0
0.5 0.05 0
0.475 0.075 0
0.5 0.075 0
0.45 0.075 0
0.475 0.075 0
0.45 0.1 0
0.475 0.1 0
0.475 0.075 0
0.5 0.075 0
0.475 0.1 0
0.5 0.1 0
0.5 0.05 0
0.525 0.05 0
0.5 0.075 0
0.525 0.075 0
0.525 0.05 0
0.55 0.05 0
0.525 0.075 0
0.55 0.075 0
0.5 0.075 0
0.525 0.075 0
0.5 0.1 0
0.525 0.1 0
0.525 0.075 0
0.55 0.075 0
0.525 0.1 0
0.55 0.1 0
0.55 0.05 0
0.575 0.05 0
0.55 0.075 0
0.575 0.075 0
0.575 0.05 0
0.6 0.05 0
0.575 0.075 0
0.6 0.075 0
0.55 0.075 0
0.575 0.075 0
0.55 0.1 0
0.575 0.1 0
0.575 0.075 0
0.6 0.075 0
0.575 0.1 0
0.6 0.1 0
0.6 0.05 0
0.625 0.05 0
0.6 0.075 0
0.625 0.075 0
0.625 0.05 0
0.65 0.05 0
0.625 0.075 0
0.65 0.075 0
0.6 0.075 0
0.625 0.075 0
0.6 0.1 0
0.625 0.1 0
0.625 0.075 0
0.65 0.075 0
0.625 0.1 0
0.65 0.1 0
0.65 0.05 0
0.675 0.05 0
0.65 0.075 0
0.675 0.075 0
0.675 0.05 0
0.7 0.05 0
0.675 0.075 0
0.7 0.075 0
0.65 0.075 0
0.675 0.075 0
0.65 0.1 0
0.675 0.1 0
0.675 0.075 0
0.7 0.075 0
0.675 0.1 0
0.7 0.1 0
0.7 0.05 0
0.725 0.05 0
0.7 0.075 0
0.725 0.075 0
0.725 0.05 0
0.75 0.05 0
0.725 0.075 0
0.75 0.075 0
0.7 0.075 0
0.725 0.075 0
0.7 0.1 0
0.725 0.1 0
0.725 0.075 0
0.75 0.075 0
0.725 0.1 0
0.75 0.1 0
0.75 0.05 0
0.775 0.05 0
0.75 0.075 0
0.775 0.075 0
0.775 0.05 0
0.8 0.05 0
0.775 0.075 0
0.8 0.075 0
0.75 0.075 0
0.775 0.075 0
0.75 0.1 0
0.775 0.1 0
0.775 0.075 0
0.8 0.075 0
0.775 0.1 0
0.8 0.1 0
0.8 0.05 0
0.825 0.05 0
0.8 0.075 0
0.825 0.075 0
0.825 0.05 0
0.85 0.05 0
0.825 0.075 0
0.85 0.075 0
0.8 0.075 0
0.825 0.075 0
0.8 0.1 0
0.825 0.1 0
0.825 0.075 0
0.85 0.075 0
0.825 0.1 0
0.85 0.1 0
0.85 0.05 0
0.875 0.05 0
0.85 0.075 0
0.875 0.075 0
0.875 0.05 0
0.9 0.05 0
0.875 0.075 0
0.9 0.075 0
0.85 0.075 0
0.875 0.075 0
0.85 0.1 0
0.875 0.1 0
0.875 0.075 0
0.9 0.075 0
0.875 0.1 0
0.9 0.1 0
0.9 0.05 0
0.925 0.05 0
0.9 0.075 0
0.925 0.075 0
0.925 0.05 0
0.95 0.05 0
0.925 0.075 0
0.95 0.075 0
0.9 0.075 0
0.925 0.075 0
0.9 0.1 0
0.925 0.1 0
0.925 0.075 0
0.95 0.075 0
0.925 0.1 0
0.95 0.1 0
0.95 0.05 0
0.975 0.05 0
0.95 0.075 0
0.975 0.075 0
0.975 0.05 0
1 0.05 0
0.975 0.075 0
1 0.075 0
0.95 0.075 0
0.975 0.075 0
0.95 0.1 0
0.975 0.1 0
0.975 0.075 0
1 0.075 0
0.975 0.1 0
1 0.1 0
1 0.05 0
1.025 0.05 0
1 0.075 0
1.025 0.075 0
1.025 0.05 0
1.05 0.05 0
1.025 0.075 0
1.05 0.075 0
1 0.075 0
1.025 0.075 0
1 0.1 0
1.025 0.1 0
1.025 0.075 0
1.05 0.075 0
1.025 0.1 0
1.05 0.1 0
1.05 0.05 0
1.075 0.05 0
1.05 0.075 0
1.075 0.075 0
1.075 0.05 0
1.1 0.05 0
1.075 0.075 0
1.1 0.075 0
1.05 0.075 0
1.075 0.075 0
1.05 0.1 0
1.075 0.1 0
1.075 0.075 0
1.1 0.075 0
1.075 0.1 0
1.1 0.1 0
1.1 0.05 0
1.125 0.05 0
1.1 0.075 0
1.125 0.075 0
1.125 0.05 0
1.15 0.05 0
1.125 0.075 0
1.15 0.075 0
1.1 0.075 0
1.125 0.075 0
1.1 0.1 0
1.125 0.1 0
1.125 0.075 0
1.15 0.075 0
1.125 0.1 0
1.15 0.1 0
1.15 0.05 0
1.175 0.05 0
1.15 0.075 0
1.175 0.075 0
1.175 0.05 0
1.2 0.05 0
1.175 0.075 0
1.2 0.075 0
1.15 0.075 0
1.175 0.075 0
1.15 0.1 0
1.175 0.1 0
1.175 0.075 0
1.2 0.075 0
1.175 0.1 0
1.2 0.1 0
1.2 0.05 0
1.225 0.05 0
1.2 0.075 0
1.225 0.075 0
1.225 0.05 0
1.25 0.05 0
1.225 0.075 0
1.25 0.075 0
1.2 0.075 0
1.225 0.075 0
1.2 0.1 0
1.225 0.1 0
1.225 0.075 0
[...]
POINT_DATA 11912
SCALARS x_displacement double 1
LOOKUP_TABLE default
0 -1.51105 0 -0.865536 -1.51105 -2.63832 -0.865536 -1.76877 -2.63832 -3.55879 -1.76877 -2.5559 -3.55879 -4.34187 -2.5559 -3.25277 -4.34187 -5.03803 -3.25277 -3.87435 -5.03803 -5.69911 -3.87435 -4.44192 -5.69911 -6.36556 -4.44192 -4.99774 -6.36556 -7.05449 -4.99774 -5.56479 -7.05449 -7.74886 -5.56479 -6.16156 -7.74886 -8.41954 -6.16156 -6.78443 -8.41954 -9.04767 -6.78443 -7.42256 -9.04767 -9.63658 -7.42256 -8.07036 -9.63658 -10.1989 -8.07036 -8.72022 -10.1989 -10.748 -8.72022 -9.36163 -10.748 -11.3003 -9.36163 -9.98413 -11.3003 -11.8713 -9.98413 -10.5798 -11.8713 -12.466 -10.5798 -11.1467 -12.466 -13.0768 -11.1467 -11.6896 -13.0768 -13.6903 -11.6896 -12.2164 -13.6903 -14.2958 -12.2164 -12.7332 -14.2958 -14.893 -12.7332 -13.2408 -14.893 -15.4958 -13.2408 -13.7363 -15.4958 -16.1188 -13.7363 -14.2191 -16.1188 -16.7437 -14.2191 -14.6802 -16.7437 -17.2965 -14.6802 -15.1013 -17.2965 -17.6864 -15.1013 -15.4695 -1.76877 -2.5559 -1.17033 -1.77233 -2.5559 -3.25277 -1.77233 -2.32963 -3.25277 -3.87435 -2.32963 -2.83179 -3.87435 -4.44192 -2.83179 -3.26263 -2.32963 -2.83179 -1.51885 -1.92594 -2.83179 -3.26263 -1.92594 -2.2826 -1.00035 -1.11195 -0.0145948 -0.0143527 -1.11195 -1.16566 -0.0143527 -0.0144962 -1.30256 -1.29913 -0.00304623 -0.00158967 -2.07899 -2.33369 0.00242381 0.00225925 -2.33369 -2.39607 0.00225925 0.00216885 -0.183906 -0.109195 0.318217 0.455199 -0.0145948 -0.0143527 0.970791 1.08296 -0.0143527 -0.0144962 1.08296 1.13655 0.00242381 0.00225925 2.08342 2.33797 0.00225925 0.00216885 2.33797 2.40023 1.49919 1.90597 2.32049 2.82193 1.90597 2.26205 2.82193 3.25179 1.16304 1.76387 1.77068 2.55792 1.76387 2.32049 2.55792 3.25438 2.32049 2.82193 3.25438 3.87507 2.82193 3.25179 3.87507 4.44142 0 0.866597 0 1.51948 0.866597 1.77068 1.51948 2.65108 1.77068 2.55792 2.65108 3.57291 2.55792 3.25438 3.57291 4.35558 3.25438 3.87507 4.35558 5.05029 3.87507 4.44142 5.05029 5.70926 4.44142 4.99594 5.70926 6.37303 4.99594 5.56173 6.37303 7.05884 5.56173 6.15738 7.05884 7.74967 6.15738 6.77925 7.74967 8.41641 6.77925 7.41665 8.41641 9.0406 7.41665 8.0639 9.0406 9.62627 8.0639 8.71316 9.62627 10.1863 8.71316 9.35403 10.1863 10.734 9.35403 9.97631 10.734 11.2853 9.97631 10.5723 11.2853 11.8552 10.5723 11.1399 11.8552 12.4488 11.1399 11.6837 12.4488 13.0591 11.6837 12.211 13.0591 13.6733 12.211 12.7281 13.6733 14.281 12.7281 13.2359 14.281 14.8812 13.2359 13.7316 14.8812 15.4875 13.7316 14.2148 15.4875 16.1135 14.2148 14.6761 16.1135 16.7402 14.6761 15.097 16.7402 17.2934 15.097 15.4649 17.2934 17.683 -17.6864 -17.8305 -16.5779 -16.7057 -17.8305 -17.9354 -16.7057 -16.8494 -16.5779 -16.7057 -15.4695 -15.6396 -16.7057 -16.8494 -15.6396 -15.7893 -17.9354 -18.0571 -16.8494 -16.9974 -18.0571 -18.129 -16.9974 -17.1288 -16.8494 -16.9974 -15.7893 -15.9182 -16.9974 -17.1288 -15.9182 -16.0292 -18.129 -18.154 -17.1288 -17.2173 -18.154 -18.5521 -17.2173 -17.2923 -17.1288 -17.2173 -16.0292 -16.1431 -17.2173 -17.2923 -16.1431 -16.2513 -18.5521 -18.8337 -17.2923 -17.4077 -18.8337 -19.0479 -17.4077 -17.676 -17.2923 -17.4077 -16.2513 -16.3193 -17.4077 -17.676 -16.3193 -16.3971 -19.0479 -19.2441 -17.676 -17.9005 -19.2441 -19.4232 -17.9005 -18.0925 -17.676 -17.9005 -16.3971 -16.6092 -17.9005 -18.0925 -16.6092 -16.8106 -19.4232 -19.5817 -18.0925 -18.2639 -19.5817 -19.7245 -18.2639 -18.4184 -18.0925 -18.2639 -16.8106 -16.9847 -18.2639 -18.4184 -16.9847 -17.1536 -19.7245 -19.8513 -18.4184 -18.5567 -19.8513 -19.9608 -18.5567 -18.6772 -18.4184 -18.5567 -17.1536 -17.3005 -18.5567 -18.6772 -17.3005 -17.431 -19.9608 -20.0522 -18.6772 -18.7811 -20.0522 -20.1261 -18.7811 -18.8691 -18.6772 -18.7811 -17.431 -17.5467 -18.7811 -18.8691 -17.5467 -17.647 -20.1261 -20.1837 -18.8691 -18.9419 -20.1837 -20.2262 -18.9419 -19.0005 -18.8691 -18.9419 -17.647 -17.7329 -18.9419 -19.0005 -17.7329 -17.8052 -20.2262 -20.2549 -19.0005 -19.0459 -20.2549 -20.2713 -19.0459 -19.0792 -19.0005 -19.0459 -17.8052 -17.8645 -19.0459 -19.0792 -17.8645 -17.9115 -20.2713 -20.277 -19.0792 -19.1018 -20.277 -20.2741 -19.1018 -19.1155 -19.0792 -19.1018 -17.9115 -17.9472 -19.1018 -19.1155 -17.9472 -17.9729 -20.2741 -20.2652 -19.1155 -19.1221 -20.2652 -20.2532 -19.1221 -19.1237 -19.1155 -19.1221 -17.9729 -17.9902 -19.1221 -19.1237 -17.9902 -18.0006 -20.2532 -20.2414 -19.1237 -19.1225 -20.2414 -20.2324 -19.1225 -19.1204 -19.1237 -19.1225 -18.0006 -18.0059 -19.1225 -19.1204 -18.0059 -18.008 -20.2324 -20.228 -19.1204 -19.119 -20.228 -20.2271 -19.119 -19.1189 -19.1204 -19.119 -18.008 -18.009 -19.119 -19.1189 -18.009 -18.0105 0 -0.432768 0 -0.352132 -0.432768 -0.865536 -0.352132 -0.719056 0 -0.352132 0 -0.26368 -0.352132 -0.719056 -0.26368 -0.573537 -0.865536 -1.31715 -0.719056 -1.08773 -1.31715 -1.76877 -1.08773 -1.46955 -0.719056 -1.08773 -0.573537 -0.878025 -1.08773 -1.46955 -0.878025 -1.17033 -4.44192 -4.71983 -3.85227 -4.07528 -4.71983 -4.99774 -4.07528 -4.30286 -3.85227 -4.07528 -3.26263 -3.45487 -4.07528 -4.30286 -3.45487 -3.62173 -4.99774 -5.28126 -4.30286 -4.54492 -5.28126 -5.56479 -4.54492 -4.80298 -4.30286 -4.54492 -3.62173 -3.79851 -4.54492 -4.80298 -3.79851 -4.01202 -5.56479 -5.86317 -4.80298 -5.07217 -5.86317 -6.16156 -5.07217 -5.35125 -4.80298 -5.07217 -4.01202 -4.26155 -5.07217 -5.35125 -4.26155 -4.50873 -6.16156 -6.473 -5.35125 -5.64748 -6.473 -6.78443 -5.64748 -5.9602 -5.35125 -5.64748 -4.50873 -4.78593 -5.64748 -5.9602 -4.78593 -5.09732 -6.78443 -7.1035 -5.9602 -6.27953 -7.1035 -7.42256 -6.27953 -6.60942 -5.9602 -6.27953 -5.09732 -5.43447 -6.27953 -6.60942 -5.43447 -5.78108 -7.42256 -7.74646 -6.60942 -6.94652 -7.74646 -8.07036 -6.94652 -7.29085 -6.60942 -6.94652 -5.78108 -6.14225 -6.94652 -7.29085 -6.14225 -6.51072 -8.07036 -8.39529 -7.29085 -7.6381 -8.39529 -8.72022 -7.6381 -7.98727 -7.29085 -7.6381 -6.51072 -6.88447 -7.6381 -7.98727 -6.88447 -7.26303 -8.72022 -9.04093 -7.98727 -8.33557 -9.04093 -9.36163 -8.33557 -8.67983 -7.98727 -8.33557 -7.26303 -7.64382 -8.33557 -8.67983 -7.64382 -8.0218 -9.36163 -9.67288 -8.67983 -9.01697 -9.67288 -9.98413 -9.01697 -9.3426 -8.67983 -9.01697 -8.0218 -8.38783 -9.01697 -9.3426 -8.38783 -8.73631 -9.98413 -10.282 -9.3426 -9.65477 -10.282 -10.5798 -9.65477 -9.9515 -9.3426 -9.65477 -8.73631 -9.0577 -9.65477 -9.9515 -9.0577 -9.35437 -10.5798 -10.8633 -9.9515 -10.233 -10.8633 -11.1467 -10.233 -10.5013 -9.9515 -10.233 -9.35437 -9.62418 -10.233 -10.5013 -9.62418 -9.87425 -11.1467 -11.4182 -10.5013 -10.7572 -11.4182 -11.6896 -10.7572 -11.0057 -10.5013 -10.7572 -9.87425 -10.1063 -10.7572 -11.0057 -10.1063 -10.329 -11.6896 -11.953 -11.0057 -11.247 -11.953 -12.2164 -11.247 -11.4854 -11.0057 -11.247 -10.329 -10.5433 -11.247 -11.4854 -10.5433 -10.7551 -12.2164 -12.4748 -11.4854 -11.7214 -12.4748 -12.7332 -11.7214 -11.9559 -11.4854 -11.7214 -10.7551 -10.9671 -11.7214 -11.9559 -10.9671 -11.1782 -12.7332 -12.987 -11.9559 -12.1894 -12.987 -13.2408 -12.1894 -12.4198 -11.9559 -12.1894 -11.1782 -11.3919 -12.1894 -12.4198 -11.3919 -11.6063 -13.2408 -13.4886 -12.4198 -12.6465 -13.4886 -13.7363 -12.6465 -12.8664 -12.4198 -12.6465 -11.6063 -11.8173 -12.6465 -12.8664 -11.8173 -12.0225 -13.7363 -13.9777 -12.8664 -13.0829 -13.9777 -14.2191 -13.0829 -13.2921 -12.8664 -13.0829 -12.0225 -12.218 -13.0829 -13.2921 -12.218 -12.4032 -14.2191 -14.4497 -13.2921 -13.4975 -14.4497 -14.6802 -13.4975 -13.6928 -13.2921 -13.4975 -12.4032 -12.5748 -13.4975 -13.6928 -12.5748 -12.7365 -14.6802 -14.8908 -13.6928 -13.8833 -14.8908 -15.1013 -13.8833 -14.066 -13.6928 -13.8833 -12.7365 -12.8902 -13.8833 -14.066 -12.8902 -13.042 -15.1013 -15.2854 -14.066 -14.2423 -15.2854 -15.4695 -14.2423 -14.4074 -14.066 -14.2423 -13.042 -13.192 -14.2423 -14.4074 -13.192 -13.3356 -15.4695 -15.6396 -14.4074 -14.5559 -15.6396 -15.7893 -14.5559 -14.6909 -14.4074 -14.5559 -13.3356 -13.4678 -14.5559 -14.6909 -13.4678 -13.5914 -15.7893 -15.9182 -14.6909 -14.8165 -15.9182 -16.0292 -14.8165 -14.934 -14.6909 -14.8165 -13.5914 -13.7118 -14.8165 -14.934 -13.7118 -13.8308 -16.0292 -16.1431 -14.934 -15.0442 -16.1431 -16.2513 -15.0442 -15.1611 -14.934 -15.0442 -13.8308 -13.9505 -15.0442 -15.1611 -13.9505 -14.0798 -16.2513 -16.3193 -15.1611 -15.3145 -16.3193 -16.3971 -15.3145 -15.4157 -15.1611 -15.3145 -14.0798 -14.2046 -15.3145 -15.4157 -14.2046 -14.3274 -16.3971 -16.6092 -15.4157 -15.426 -16.6092 -16.8106 -15.426 -15.5639 -15.4157 -15.426 -14.3274 -14.4423 -15.426 -15.5639 -14.4423 -14.528 -16.8106 -16.9847 -15.5639 -15.76 -16.9847 -17.1536 -15.76 -15.9268 -15.5639 -15.76 -14.528 -14.5405 -15.76 -15.9268 -14.5405 -14.7213 -17.1536 -17.3005 -15.9268 -16.077 -17.3005 -17.431 -16.077 -16.2199 -15.9268 -16.077 -14.7213 -14.8897 -16.077 -16.2199 -14.8897 -15.0387 -17.431 -17.5467 -16.2199 -16.346 -17.5467 -17.647 -16.346 -16.4575 -16.2199 -16.346 -15.0387 -15.1761 -16.346 -16.4575 -15.1761 -15.3 -17.647 -17.7329 -16.4575 -16.5554 -17.7329 -17.8052 -16.5554 -16.6396 -16.4575 -16.5554 -15.3 -15.4086 -16.5554 -16.6396 -15.4086 -15.504 -17.8052 -17.8645 -16.6396 -16.7106 -17.8645 -17.9115 -16.7106 -16.7686 -16.6396 -16.7106 -15.504 -15.5847 -16.7106 -16.7686 -15.5847 -15.6515 -17.9115 -17.9472 -16.7686 -16.8144 -17.9472 -17.9729 -16.8144 -16.849 -16.7686 -16.8144 -15.6515 -15.7048 -16.8144 -16.849 -15.7048 -15.7462 -17.9729 -17.9902 -16.849 -16.8737 -17.9902 -18.0006 -16.8737 -16.8897 -16.849 -16.8737 -15.7462 -15.7763 -16.8737 -16.8897 -15.7763 -15.7961 -18.0006 -18.0059 -16.8897 -16.8989 -18.0059 -18.008 -16.8989 -16.9032 -16.8897 -16.8989 -15.7961 -15.8072 -16.8989 -16.9032 -15.8072 -15.8121 -18.008 -18.009 -16.9032 -16.9052 -18.009 -18.0105 -16.9052 -16.9076 -16.9032 -16.9052 -15.8121 -15.814 -16.9052 -16.9076 -15.814 -15.8167 0 -0.26368 0 -0.185175 -0.26368 -0.573537 -0.185175 -0.439448 0 -0.185175 0 -0.0885321 -0.185175 -0.439448 -0.0885321 -0.248056 -0.573537 -0.878025 -0.439448 -0.66961 -0.878025 -1.17033 -0.66961 -0.917289 -0.439448 -0.66961 -0.248056 -0.451179 -0.66961 -0.917289 -0.451179 -0.675657 -1.17033 -1.47133 -0.917289 -1.17462 -1.47133 -1.77233 -1.17462 -1.4258 -0.917289 -1.17462 -0.675657 -0.876766 -1.17462 -1.4258 -0.876766 -1.08656 -1.77233 -2.05098 -1.4258 -1.67606 -2.05098 -2.32963 -1.67606 -1.92424 -1.4258 -1.67606 -1.08656 -1.30811 -1.67606 -1.92424 -1.30811 -1.51885 -3.26263 -3.45487 -2.77261 -2.91699 -3.45487 -3.62173 -2.91699 -3.05249 -2.77261 -2.91699 -2.2826 -2.44773 -2.91699 -3.05249 -2.44773 -2.59288 -3.62173 -3.79851 -3.05249 -3.17168 -3.79851 -4.01202 -3.17168 -3.29538 -3.05249 -3.17168 -2.59288 -2.724 -3.17168 -3.29538 -2.724 -2.85548 -4.01202 -4.26155 -3.29538 -3.47256 -4.26155 -4.50873 -3.47256 -3.69589 -3.29538 -3.47256 -2.85548 -2.9946 -3.47256 -3.69589 -2.9946 -3.12573 -4.50873 -4.78593 -3.69589 -3.90917 -4.78593 -5.09732 -3.90917 -4.12296 -3.69589 -3.90917 -3.12573 -3.25139 -3.90917 -4.12296 -3.25139 -3.36834 -5.09732 -5.43447 -4.12296 -4.43885 -5.43447 -5.78108 -4.43885 -4.9282 -4.12296 -4.43885 -3.36834 -3.48074 -4.43885 -4.9282 -3.48074 -3.60277 -5.78108 -6.14225 -4.9282 -5.33432 -6.14225 -6.51072 -5.33432 -5.7351 -4.9282 -5.33432 -3.60277 -4.11152 -5.33432 -5.7351 -4.11152 -5.17038 -6.51072 -6.88447 -5.7351 -6.1423 -6.88447 -7.26303 -6.1423 -6.55132 -5.7351 -6.1423 -5.17038 -5.6786 -6.1423 -6.55132 -5.6786 -6.12957 -7.26303 -7.64382 -6.55132 -6.97958 -7.64382 -8.0218 -6.97958 -7.38704 -6.55132 -6.97958 -6.12957 -6.56516 -6.97958 -7.38704 -6.56516 -6.97267 -8.0218 -8.38783 -7.38704 -7.79531 -8.38783 -8.73631 -7.79531 -8.14937 -7.38704 -7.79531 -6.97267 -7.30722 -7.79531 -8.14937 -7.30722 -7.65562 -8.73631 -9.0577 -8.14937 -8.48195 -9.0577 -9.35437 -8.48195 -8.75963 -8.14937 -8.48195 -7.65562 -7.90837 -8.48195 -8.75963 -7.90837 -8.19065 -9.35437 -9.62418 -8.75963 -9.01866 -9.62418 -9.87425 -9.01866 -9.24022 -8.75963 -9.01866 -8.19065 -8.3903 -9.01866 -9.24022 -8.3903 -8.61378 -9.87425 -10.1063 -9.24022 -9.45177 -10.1063 -10.329 -9.45177 -9.64489 -9.24022 -9.45177 -8.61378 -8.7777 -9.45177 -9.64489 -8.7777 -8.96455 -10.329 -10.5433 -9.64489 -9.83535 -10.5433 -10.7551 -9.83535 -10.0202 -9.64489 -9.83535 -8.96455 -9.11747 -9.83535 -10.0202 -9.11747 -9.28662 -10.7551 -10.9671 -10.0202 -10.2097 -10.9671 -11.1782 -10.2097 -10.3993 -10.0202 -10.2097 -9.28662 -9.45063 -10.2097 -10.3993 -9.45063 -9.62287 -11.1782 -11.3919 -10.3993 -10.5976 -11.3919 -11.6063 -10.5976 -10.8042 -10.3993 -10.5976 -9.62287 -9.81144 -10.5976 -10.8042 -9.81144 -10.0306 -11.6063 -11.8173 -10.8042 -11.0171 -11.8173 -12.0225 -11.0171 -11.2289 -10.8042 -11.0171 -10.0306 -10.3325 -11.0171 -11.2289 -10.3325 -10.5594 -12.0225 -12.218 -11.2289 -11.4156 -12.218 -12.4032 -11.4156 -11.5677 -11.2289 -11.4156 -10.5594 -10.6867 -11.4156 -11.5677 -10.6867 -10.7734 -12.4032 -12.5748 -11.5677 -11.6936 -12.5748 -12.7365 -11.6936 -11.8053 -11.5677 -11.6936 -10.7734 -10.8396 -11.6936 -11.8053 -10.8396 -10.8918 -12.7365 -12.8902 -11.8053 -11.9077 -12.8902 -13.042 -11.9077 -12.0084 -11.8053 -11.9077 -10.8918 -10.9337 -11.9077 -12.0084 -10.9337 -10.9708 -13.042 -13.192 -12.0084 -12.1162 -13.192 -13.3356 -12.1162 -12.2316 -12.0084 -12.1162 -10.9708 -11.0112 -12.1162 -12.2316 -11.0112 -11.0781 -13.3356 -13.4678 -12.2316 -12.3531 -13.4678 -13.5914 -12.3531 -12.4736 -12.2316 -12.3531 -11.0781 -11.1922 -12.3531 -12.4736 -11.1922 -11.3292 -13.5914 -13.7118 -12.4736 -12.596 -13.7118 -13.8308 -12.596 -12.7216 -12.4736 -12.596 -11.3292 -11.4657 -12.596 -12.7216 -11.4657 -11.6003 -13.8308 -13.9505 -12.7216 -12.8477 -13.9505 -14.0798 -12.8477 -12.9763 -12.7216 -12.8477 -11.6003 -11.7341 -12.8477 -12.9763 -11.7341 -11.8673 -14.0798 -14.2046 -12.9763 -13.1029 -14.2046 -14.3274 -13.1029 -13.2226 -12.9763 -13.1029 -11.8673 -11.9991 -13.1029 -13.2226 -11.9991 -12.1317 -14.3274 -14.4423 -13.2226 -13.3486 -14.4423 -14.528 -13.3486 -13.4851 -13.2226 -13.3486 -12.1317 -12.265 -13.3486 -13.4851 -12.265 -12.3865 -14.528 -14.5405 -13.4851 -13.5712 -14.5405 -14.7213 -13.5712 -13.6152 -13.4851 -13.5712 -12.3865 -12.5137 -13.5712 -13.6152 -12.5137 -12.6469 -14.7213 -14.8897 -13.6152 -13.6903 -14.8897 -15.0387 -13.6903 -13.8829 -13.6152 -13.6903 -12.6469 -12.7395 -13.6903 -13.8829 -12.7395 -12.7726 -15.0387 -15.1761 -13.8829 -14.0405 -15.1761 -15.3 -14.0405 -14.1727 -13.8829 -14.0405 -12.7726 -12.9251 -14.0405 -14.1727 -12.9251 -13.0851 -15.3 -15.4086 -14.1727 -14.2947 -15.4086 -15.504 -14.2947 -14.3993 -14.1727 -14.2947 -13.0851 -13.2141 -14.2947 -14.3993 -13.2141 -13.335 -15.504 -15.5847 -14.3993 -14.4884 -15.5847 -15.6515 -14.4884 -14.5602 -14.3993 -14.4884 -13.335 -13.4188 -14.4884 -14.5602 -13.4188 -13.493 -15.6515 -15.7048 -14.5602 -14.6194 -15.7048 -15.7462 -14.6194 -14.6666 -14.5602 -14.6194 -13.493 -13.5588 -14.6194 -14.6666 -13.5588 -13.6118 -15.7462 -15.7763 -14.6666 -14.7012 -15.7763 -15.7961 -14.7012 -14.7237 -14.6666 -14.7012 -13.6118 -13.6509 -14.7012 -14.7237 -13.6509 -13.676 -15.7961 -15.8072 -14.7237 -14.7357 -15.8072 -15.8121 -14.7357 -14.7402 -14.7237 -14.7357 -13.676 -13.6885 -14.7357 -14.7402 -13.6885 -13.6918 -15.8121 -15.814 -14.7402 -14.741 -15.814 -15.8167 -14.741 -14.743 -14.7402 -14.741 -13.6918 -13.6907 -14.741 -14.743 -13.6907 -13.691 0 -0.0885321 0 -0.10217 -0.0885321 -0.248056 -0.10217 -0.0479428 0 -0.10217 0 -0.0729134 -0.10217 -0.0479428 -0.0729134 -0.167314 -0.248056 -0.451179 -0.0479428 -0.223702 -0.451179 -0.675657 -0.223702 -0.396605 -0.0479428 -0.223702 -0.167314 -0.28322 -0.223702 -0.396605 -0.28322 -0.134267 -0.675657 -0.876766 -0.396605 -0.566654 -0.876766 -1.08656 -0.566654 -0.758299 -0.396605 -0.566654 -0.134267 -0.234875 -0.566654 -0.758299 -0.234875 -0.406826 -1.08656 -1.30811 -0.758299 -0.946841 -1.30811 -1.51885 -0.946841 -1.13742 -0.758299 -0.946841 -0.406826 -0.586922 -0.946841 -1.13742 -0.586922 -0.773329 -1.51885 -1.72239 -1.13742 -1.32979 -1.72239 -1.92594 -1.32979 -1.511 -1.13742 -1.32979 -0.773329 -0.941023 -1.32979 -1.511 -0.941023 -1.11234 -1.92594 -2.10427 -1.511 -1.68754 -2.10427 -2.2826 -1.68754 -1.85566 -1.511 -1.68754 -1.11234 -1.28449 -1.68754 -1.85566 -1.28449 -1.44904 -2.2826 -2.44773 -1.85566 -2.01634 -2.44773 -2.59288 -2.01634 -2.17086 -1.85566 -2.01634 -1.44904 -1.61075 -2.01634 -2.17086 -1.61075 -1.77152 -2.59288 -2.724 -2.17086 -2.31971 -2.724 -2.85548 -2.31971 -2.46713 -2.17086 -2.31971 -1.77152 -1.92972 -2.31971 -2.46713 -1.92972 -2.08445 -2.85548 -2.9946 -2.46713 -2.60676 -2.9946 -3.12573 -2.60676 -2.73836 -2.46713 -2.60676 -2.08445 -2.23797 -2.60676 -2.73836 -2.23797 -2.39585 -3.12573 -3.25139 -2.73836 -2.87365 -3.25139 -3.36834 -2.87365 -3.01243 -2.73836 -2.87365 -2.39585 -2.5513 -2.87365 -3.01243 -2.5513 -2.7049 -3.36834 -3.48074 -3.01243 -3.18157 -3.48074 -3.60277 -3.18157 -3.34732 -3.01243 -3.18157 -2.7049 -2.87274 -3.18157 -3.34732 -2.87274 -3.03828 -3.60277 -4.11152 -3.34732 -3.33626 -4.11152 -5.17038 -3.33626 -3.49486 -3.34732 -3.33626 -3.03828 -3.19589 -3.33626 -3.49486 -3.19589 -3.31702 -5.17038 -5.6786 -3.49486 -4.10035 -5.6786 -6.12957 -4.10035 -4.83433 -3.49486 -4.10035 -3.31702 -3.20641 -4.10035 -4.83433 -3.20641 -3.33573 -6.12957 -6.56516 -4.83433 -5.31673 -6.56516 -6.97267 -5.31673 -5.76314 -4.83433 -5.31673 -3.33573 -4.08931 -5.31673 -5.76314 -4.08931 -4.60704 -6.97267 -7.30722 -5.76314 -6.20861 -7.30722 -7.65562 -6.20861 -6.61389 -5.76314 -6.20861 -4.60704 -5.08863 -6.20861 -6.61389 -5.08863 -5.52675 -7.65562 -7.90837 -6.61389 -6.98318 -7.90837 -8.19065 -6.98318 -7.30784 -6.61389 -6.98318 -5.52675 -5.91998 -6.98318 -7.30784 -5.91998 -6.28067 -8.19065 -8.3903 -7.30784 -7.62692 -8.3903 -8.61378 -7.62692 -7.90023 -7.30784 -7.62692 -6.28067 -6.59951 -7.62692 -7.90023 -6.59951 -6.92771 -8.61378 -8.7777 -7.90023 -8.14464 -8.7777 -8.96455 -8.14464 -8.31043 -7.90023 -8.14464 -6.92771 -7.25121 -8.14464 -8.31043 -7.25121 -7.54596 -8.96455 -9.11747 -8.31043 -8.47929 -9.11747 -9.28662 -8.47929 -8.62392 -8.31043 -8.47929 -7.54596 -7.79086 -8.47929 -8.62392 -7.79086 -8.00674 -9.28662 -9.45063 -8.62392 -8.80324 -9.45063 -9.62287 -8.80324 -9.01453 -8.62392 -8.80324 -8.00674 -8.21899 -8.80324 -9.01453 -8.21899 -8.46343 -9.62287 -9.81144 -9.01453 -9.42414 -9.81144 -10.0306 -9.42414 -9.68408 -9.01453 -9.42414 -8.46343 -8.76762 -9.42414 -9.68408 -8.76762 -8.89017 -10.0306 -10.3325 -9.68408 -9.78309 -10.3325 -10.5594 -9.78309 -9.85534 -9.68408 -9.78309 -8.89017 -8.98532 -9.78309 -9.85534 -8.98532 -9.04964 -10.5594 -10.6867 -9.85534 -9.91643 -10.6867 -10.7734 -9.91643 -9.95685 -9.85534 -9.91643 -9.04964 -9.08515 -9.91643 -9.95685 -9.08515 -9.0963 -10.7734 -10.8396 -9.95685 -9.97759 -10.8396 -10.8918 -9.97759 -9.98178 -9.95685 -9.97759 -9.0963 -9.08787 -9.97759 -9.98178 -9.08787 -9.06181 -10.8918 -10.9337 -9.98178 -9.97235 -10.9337 -10.9708 -9.97235 -9.95008 -9.98178 -9.97235 -9.06181 -9.01885 -9.97235 -9.95008 -9.01885 -8.95798 -10.9708 -11.0112 -9.95008 -9.91413 -11.0112 -11.0781 -9.91413 -9.89 -9.95008 -9.91413 -8.95798 -8.8778 -9.91413 -9.89 -8.8778 -8.75451 -11.0781 -11.1922 -9.89 -10.0003 -11.1922 -11.3292 -10.0003 -10.1735 -9.89 -10.0003 -8.75451 -8.79396 -10.0003 -10.1735 -8.79396 -8.99245 -11.3292 -11.4657 -10.1735 -10.3166 -11.4657 -11.6003 -10.3166 -10.4676 -10.1735 -10.3166 -8.99245 -9.17346 -10.3166 -10.4676 -9.17346 -9.34772 -11.6003 -11.7341 -10.4676 -10.6186 -11.7341 -11.8673 -10.6186 -10.7623 -10.4676 -10.6186 -9.34772 -9.49929 -10.6186 -10.7623 -9.49929 -9.65344 -11.8673 -11.9991 -10.7623 -10.9032 -11.9991 -12.1317 -10.9032 -11.0418 -10.7623 -10.9032 -9.65344 -9.81024 -10.9032 -11.0418 -9.81024 -9.95822 -12.1317 -12.265 -11.0418 -11.1794 -12.265 -12.3865 -11.1794 -11.3148 -11.0418 -11.1794 -9.95822 -10.103 -11.1794 -11.3148 -10.103 -10.2466 -12.3865 -12.5137 -11.3148 -11.4467 -12.5137 -12.6469 -11.4467 -11.5801 -11.3148 -11.4467 -10.2466 -10.3908 -11.4467 -11.5801 -10.3908 -10.5342 -12.6469 -12.7395 -11.5801 -11.7225 -12.7395 -12.7726 -11.7225 -11.8275 -11.5801 -11.7225 -10.5342 -10.666 -11.7225 -11.8275 -10.666 -10.805 -12.7726 -12.9251 -11.8275 -11.8873 -12.9251 -13.0851 -11.8873 -12.0091 -11.8275 -11.8873 -10.805 -10.9689 -11.8873 -12.0091 -10.9689 -11.0575 -13.0851 -13.2141 -12.0091 -12.2463 -13.2141 -13.335 -12.2463 -12.2