# vtk DataFile Version 3.0
#This file was generated by the deal.II library on 2015/8/30 at 10:13:44
ASCII
DATASET UNSTRUCTURED_GRID

POINTS 20 double
1 0 0
2 0 0
1 1 0
2 1 0
0 0 0
0.5 0 0
0 0.5 0
0.5 0.5 0
0.5 0 0
1 0 0
0.5 0.5 0
1 0.5 0
0 0.5 0
0.5 0.5 0
0 1 0
0.5 1 0
0.5 0.5 0
1 0.5 0
0.5 1 0
1 1 0

CELLS 5 25
4	0	1	3	2
4	4	5	7	6
4	8	9	11	10
4	12	13	15	14
4	16	17	19	18

CELL_TYPES 5
 9 9 9 9 9
POINT_DATA 20
SCALARS x_displacement double 1
LOOKUP_TABLE default
-58.5201 -83.4586 58.5201 83.4586 0 -28.6482 0 9.63674e-14 -28.6482 -58.5201 9.63674e-14 3.55271e-14 0 9.63674e-14 0 28.6482 9.63674e-14 3.55271e-14 28.6482 58.5201 
SCALARS y_displacement double 1
LOOKUP_TABLE default
-76.0276 -250.742 -76.0276 -250.742 0 -24.7329 0 -18.7056 -24.7329 -76.0276 -18.7056 -76.0276 0 -18.7056 0 -24.7329 -18.7056 -76.0276 -24.7329 -76.0276 
