# vtk DataFile Version 3.0
#This file was generated by the deal.II library on 2015/9/3 at 12: 1: 0
ASCII
DATASET UNSTRUCTURED_GRID

POINTS 3200 double
0 0 0
0.05 0 0
0 0.05 0
0.05 0.05 0
0.05 0 0
0.1 0 0
0.05 0.05 0
0.1 0.05 0
0.1 0 0
0.15 0 0
0.1 0.05 0
0.15 0.05 0
0.15 0 0
0.2 0 0
0.15 0.05 0
0.2 0.05 0
0.2 0 0
0.25 0 0
0.2 0.05 0
0.25 0.05 0
0.25 0 0
0.3 0 0
0.25 0.05 0
0.3 0.05 0
0.3 0 0
0.35 0 0
0.3 0.05 0
0.35 0.05 0
0.35 0 0
0.4 0 0
0.35 0.05 0
0.4 0.05 0
0.4 0 0
0.45 0 0
0.4 0.05 0
0.45 0.05 0
0.45 0 0
0.5 0 0
0.45 0.05 0
0.5 0.05 0
0.5 0 0
0.55 0 0
0.5 0.05 0
0.55 0.05 0
0.55 0 0
0.6 0 0
0.55 0.05 0
0.6 0.05 0
0.6 0 0
0.65 0 0
0.6 0.05 0
0.65 0.05 0
0.65 0 0
0.7 0 0
0.65 0.05 0
0.7 0.05 0
0.7 0 0
0.75 0 0
0.7 0.05 0
0.75 0.05 0
0.75 0 0
0.8 0 0
0.75 0.05 0
0.8 0.05 0
0.8 0 0
0.85 0 0
0.8 0.05 0
0.85 0.05 0
0.85 0 0
0.9 0 0
0.85 0.05 0
0.9 0.05 0
0.9 0 0
0.95 0 0
0.9 0.05 0
0.95 0.05 0
0.95 0 0
1 0 0
0.95 0.05 0
1 0.05 0
1 0 0
1.05 0 0
1 0.05 0
1.05 0.05 0
1.05 0 0
1.1 0 0
1.05 0.05 0
1.1 0.05 0
1.1 0 0
1.15 0 0
1.1 0.05 0
1.15 0.05 0
1.15 0 0
1.2 0 0
1.15 0.05 0
1.2 0.05 0
1.2 0 0
1.25 0 0
1.2 0.05 0
1.25 0.05 0
1.25 0 0
1.3 0 0
1.25 0.05 0
1.3 0.05 0
1.3 0 0
1.35 0 0
1.3 0.05 0
1.35 0.05 0
1.35 0 0
1.4 0 0
1.35 0.05 0
1.4 0.05 0
1.4 0 0
1.45 0 0
1.4 0.05 0
1.45 0.05 0
1.45 0 0
1.5 0 0
1.45 0.05 0
1.5 0.05 0
1.5 0 0
1.55 0 0
1.5 0.05 0
1.55 0.05 0
1.55 0 0
1.6 0 0
1.55 0.05 0
1.6 0.05 0
1.6 0 0
1.65 0 0
1.6 0.05 0
1.65 0.05 0
1.65 0 0
1.7 0 0
1.65 0.05 0
1.7 0.05 0
1.7 0 0
1.75 0 0
1.7 0.05 0
1.75 0.05 0
1.75 0 0
1.8 0 0
1.75 0.05 0
1.8 0.05 0
1.8 0 0
1.85 0 0
1.8 0.05 0
1.85 0.05 0
1.85 0 0
1.9 0 0
1.85 0.05 0
1.9 0.05 0
1.9 0 0
1.95 0 0
1.9 0.05 0
1.95 0.05 0
1.95 0 0
2 0 0
1.95 0.05 0
2 0.05 0
0 0.05 0
0.05 0.05 0
0 0.1 0
0.05 0.1 0
0.05 0.05 0
0.1 0.05 0
0.05 0.1 0
0.1 0.1 0
0.1 0.05 0
0.15 0.05 0
0.1 0.1 0
0.15 0.1 0
0.15 0.05 0
0.2 0.05 0
0.15 0.1 0
0.2 0.1 0
0.2 0.05 0
0.25 0.05 0
0.2 0.1 0
0.25 0.1 0
0.25 0.05 0
0.3 0.05 0
0.25 0.1 0
0.3 0.1 0
0.3 0.05 0
0.35 0.05 0
0.3 0.1 0
0.35 0.1 0
0.35 0.05 0
0.4 0.05 0
0.35 0.1 0
0.4 0.1 0
0.4 0.05 0
0.45 0.05 0
0.4 0.1 0
0.45 0.1 0
0.45 0.05 0
0.5 0.05 0
0.45 0.1 0
0.5 0.1 0
0.5 0.05 0
0.55 0.05 0
0.5 0.1 0
0.55 0.1 0
0.55 0.05 0
0.6 0.05 0
0.55 0.1 0
0.6 0.1 0
0.6 0.05 0
0.65 0.05 0
0.6 0.1 0
0.65 0.1 0
0.65 0.05 0
0.7 0.05 0
0.65 0.1 0
0.7 0.1 0
0.7 0.05 0
0.75 0.05 0
0.7 0.1 0
0.75 0.1 0
0.75 0.05 0
0.8 0.05 0
0.75 0.1 0
0.8 0.1 0
0.8 0.05 0
0.85 0.05 0
0.8 0.1 0
0.85 0.1 0
0.85 0.05 0
0.9 0.05 0
0.85 0.1 0
0.9 0.1 0
0.9 0.05 0
0.95 0.05 0
0.9 0.1 0
0.95 0.1 0
0.95 0.05 0
1 0.05 0
0.95 0.1 0
1 0.1 0
1 0.05 0
1.05 0.05 0
1 0.1 0
1.05 0.1 0
1.05 0.05 0
1.1 0.05 0
1.05 0.1 0
1.1 0.1 0
1.1 0.05 0
1.15 0.05 0
1.1 0.1 0
1.15 0.1 0
1.15 0.05 0
1.2 0.05 0
1.15 0.1 0
1.2 0.1 0
1.2 0.05 0
1.25 0.05 0
1.2 0.1 0
1.25 0.1 0
1.25 0.05 0
1.3 0.05 0
1.25 0.1 0
1.3 0.1 0
1.3 0.05 0
1.35 0.05 0
1.3 0.1 0
1.35 0.1 0
1.35 0.05 0
1.4 0.05 0
1.35 0.1 0
1.4 0.1 0
1.4 0.05 0
1.45 0.05 0
1.4 0.1 0
1.45 0.1 0
1.45 0.05 0
1.5 0.05 0
1.45 0.1 0
1.5 0.1 0
1.5 0.05 0
1.55 0.05 0
1.5 0.1 0
1.55 0.1 0
1.55 0.05 0
1.6 0.05 0
1.55 0.1 0
1.6 0.1 0
1.6 0.05 0
1.65 0.05 0
1.6 0.1 0
1.65 0.1 0
1.65 0.05 0
1.7 0.05 0
1.65 0.1 0
1.7 0.1 0
1.7 0.05 0
1.75 0.05 0
1.7 0.1 0
1.75 0.1 0
1.75 0.05 0
1.8 0.05 0
1.75 0.1 0
1.8 0.1 0
1.8 0.05 0
1.85 0.05 0
1.8 0.1 0
1.85 0.1 0
1.85 0.05 0
1.9 0.05 0
1.85 0.1 0
1.9 0.1 0
1.9 0.05 0
1.95 0.05 0
1.9 0.1 0
1.95 0.1 0
1.95 0.05 0
2 0.05 0
1.95 0.1 0
2 0.1 0
0 0.1 0
0.05 0.1 0
0 0.15 0
0.05 0.15 0
0.05 0.1 0
0.1 0.1 0
0.05 0.15 0
0.1 0.15 0
0.1 0.1 0
0.15 0.1 0
0.1 0.15 0
0.15 0.15 0
0.15 0.1 0
0.2 0.1 0
0.15 0.15 0
0.2 0.15 0
0.2 0.1 0
0.25 0.1 0
0.2 0.15 0
0.25 0.15 0
0.25 0.1 0
0.3 0.1 0
0.25 0.15 0
0.3 0.15 0
0.3 0.1 0
0.35 0.1 0
0.3 0.15 0
0.35 0.15 0
0.35 0.1 0
0.4 0.1 0
0.35 0.15 0
0.4 0.15 0
0.4 0.1 0
0.45 0.1 0
0.4 0.15 0
0.45 0.15 0
0.45 0.1 0
0.5 0.1 0
0.45 0.15 0
0.5 0.15 0
0.5 0.1 0
0.55 0.1 0
0.5 0.15 0
0.55 0.15 0
0.55 0.1 0
0.6 0.1 0
0.55 0.15 0
0.6 0.15 0
0.6 0.1 0
0.65 0.1 0
0.6 0.15 0
0.65 0.15 0
0.65 0.1 0
0.7 0.1 0
0.65 0.15 0
0.7 0.15 0
0.7 0.1 0
0.75 0.1 0
0.7 0.15 0
0.75 0.15 0
0.75 0.1 0
0.8 0.1 0
0.75 0.15 0
0.8 0.15 0
0.8 0.1 0
0.85 0.1 0
0.8 0.15 0
0.85 0.15 0
0.85 0.1 0
0.9 0.1 0
0.85 0.15 0
0.9 0.15 0
0.9 0.1 0
0.95 0.1 0
0.9 0.15 0
0.95 0.15 0
0.95 0.1 0
1 0.1 0
0.95 0.15 0
1 0.15 0
1 0.1 0
1.05 0.1 0
1 0.15 0
1.05 0.15 0
1.05 0.1 0
1.1 0.1 0
1.05 0.15 0
1.1 0.15 0
1.1 0.1 0
1.15 0.1 0
1.1 0.15 0
1.15 0.15 0
1.15 0.1 0
1.2 0.1 0
1.15 0.15 0
1.2 0.15 0
1.2 0.1 0
1.25 0.1 0
1.2 0.15 0
1.25 0.15 0
1.25 0.1 0
1.3 0.1 0
1.25 0.15 0
1.3 0.15 0
1.3 0.1 0
1.35 0.1 0
1.3 0.15 0
1.35 0.15 0
1.35 0.1 0
1.4 0.1 0
1.35 0.15 0
1.4 0.15 0
1.4 0.1 0
1.45 0.1 0
1.4 0.15 0
1.45 0.15 0
1.45 0.1 0
1.5 0.1 0
1.45 0.15 0
1.5 0.15 0
1.5 0.1 0
1.55 0.1 0
1.5 0.15 0
1.55 0.15 0
1.55 0.1 0
1.6 0.1 0
1.55 0.15 0
1.6 0.15 0
1.6 0.1 0
1.65 0.1 0
1.6 0.15 0
1.65 0.15 0
1.65 0.1 0
1.7 0.1 0
1.65 0.15 0
1.7 0.15 0
1.7 0.1 0
1.75 0.1 0
1.7 0.15 0
1.75 0.15 0
1.75 0.1 0
1.8 0.1 0
1.75 0.15 0
1.8 0.15 0
1.8 0.1 0
1.85 0.1 0
1.8 0.15 0
1.85 0.15 0
1.85 0.1 0
1.9 0.1 0
1.85 0.15 0
1.9 0.15 0
1.9 0.1 0
1.95 0.1 0
1.9 0.15 0
1.95 0.15 0
1.95 0.1 0
2 0.1 0
1.95 0.15 0
2 0.15 0
0 0.15 0
0.05 0.15 0
0 0.2 0
0.05 0.2 0
0.05 0.15 0
0.1 0.15 0
0.05 0.2 0
0.1 0.2 0
0.1 0.15 0
0.15 0.15 0
0.1 0.2 0
0.15 0.2 0
0.15 0.15 0
0.2 0.15 0
0.15 0.2 0
0.2 0.2 0
0.2 0.15 0
0.25 0.15 0
0.2 0.2 0
0.25 0.2 0
0.25 0.15 0
0.3 0.15 0
0.25 0.2 0
0.3 0.2 0
0.3 0.15 0
0.35 0.15 0
0.3 0.2 0
0.35 0.2 0
0.35 0.15 0
0.4 0.15 0
0.35 0.2 0
0.4 0.2 0
0.4 0.15 0
0.45 0.15 0
0.4 0.2 0
0.45 0.2 0
0.45 0.15 0
0.5 0.15 0
0.45 0.2 0
0.5 0.2 0
0.5 0.15 0
0.55 0.15 0
0.5 0.2 0
0.55 0.2 0
0.55 0.15 0
0.6 0.15 0
0.55 0.2 0
0.6 0.2 0
0.6 0.15 0
0.65 0.15 0
0.6 0.2 0
0.65 0.2 0
0.65 0.15 0
0.7 0.15 0
0.65 0.2 0
0.7 0.2 0
0.7 0.15 0
0.75 0.15 0
0.7 0.2 0
0.75 0.2 0
0.75 0.15 0
0.8 0.15 0
0.75 0.2 0
0.8 0.2 0
0.8 0.15 0
0.85 0.15 0
0.8 0.2 0
0.85 0.2 0
0.85 0.15 0
0.9 0.15 0
0.85 0.2 0
0.9 0.2 0
0.9 0.15 0
0.95 0.15 0
0.9 0.2 0
0.95 0.2 0
0.95 0.15 0
1 0.15 0
0.95 0.2 0
1 0.2 0
1 0.15 0
1.05 0.15 0
1 0.2 0
1.05 0.2 0
1.05 0.15 0
1.1 0.15 0
1.05 0.2 0
1.1 0.2 0
1.1 0.15 0
1.15 0.15 0
1.1 0.2 0
1.15 0.2 0
1.15 0.15 0
1.2 0.15 0
1.15 0.2 0
1.2 0.2 0
1.2 0.15 0
1.25 0.15 0
1.2 0.2 0
1.25 0.2 0
1.25 0.15 0
1.3 0.15 0
1.25 0.2 0
1.3 0.2 0
1.3 0.15 0
1.35 0.15 0
1.3 0.2 0
1.35 0.2 0
1.35 0.15 0
1.4 0.15 0
1.35 0.2 0
1.4 0.2 0
1.4 0.15 0
1.45 0.15 0
1.4 0.2 0
1.45 0.2 0
1.45 0.15 0
1.5 0.15 0
1.45 0.2 0
1.5 0.2 0
1.5 0.15 0
1.55 0.15 0
1.5 0.2 0
1.55 0.2 0
1.55 0.15 0
1.6 0.15 0
1.55 0.2 0
1.6 0.2 0
1.6 0.15 0
1.65 0.15 0
1.6 0.2 0
1.65 0.2 0
1.65 0.15 0
1.7 0.15 0
1.65 0.2 0
1.7 0.2 0
1.7 0.15 0
1.75 0.15 0
1.7 0.2 0
1.75 0.2 0
1.75 0.15 0
1.8 0.15 0
1.75 0.2 0
1.8 0.2 0
1.8 0.15 0
1.85 0.15 0
1.8 0.2 0
1.85 0.2 0
1.85 0.15 0
1.9 0.15 0
1.85 0.2 0
1.9 0.2 0
1.9 0.15 0
1.95 0.15 0
1.9 0.2 0
1.95 0.2 0
1.95 0.15 0
2 0.15 0
1.95 0.2 0
2 0.2 0
0 0.2 0
0.05 0.2 0
0 0.25 0
0.05 0.25 0
0.05 0.2 0
0.1 0.2 0
0.05 0.25 0
0.1 0.25 0
0.1 0.2 0
0.15 0.2 0
0.1 0.25 0
0.15 0.25 0
0.15 0.2 0
0.2 0.2 0
0.15 0.25 0
0.2 0.25 0
0.2 0.2 0
0.25 0.2 0
0.2 0.25 0
0.25 0.25 0
0.25 0.2 0
0.3 0.2 0
0.25 0.25 0
0.3 0.25 0
0.3 0.2 0
0.35 0.2 0
0.3 0.25 0
0.35 0.25 0
0.35 0.2 0
0.4 0.2 0
0.35 0.25 0
0.4 0.25 0
0.4 0.2 0
0.45 0.2 0
0.4 0.25 0
0.45 0.25 0
0.45 0.2 0
0.5 0.2 0
0.45 0.25 0
0.5 0.25 0
0.5 0.2 0
0.55 0.2 0
0.5 0.25 0
0.55 0.25 0
0.55 0.2 0
0.6 0.2 0
0.55 0.25 0
0.6 0.25 0
0.6 0.2 0
0.65 0.2 0
0.6 0.25 0
0.65 0.25 0
0.65 0.2 0
0.7 0.2 0
0.65 0.25 0
0.7 0.25 0
0.7 0.2 0
0.75 0.2 0
0.7 0.25 0
0.75 0.25 0
0.75 0.2 0
0.8 0.2 0
0.75 0.25 0
0.8 0.25 0
0.8 0.2 0
0.85 0.2 0
0.8 0.25 0
0.85 0.25 0
0.85 0.2 0
0.9 0.2 0
0.85 0.25 0
0.9 0.25 0
0.9 0.2 0
0.95 0.2 0
0.9 0.25 0
0.95 0.25 0
0.95 0.2 0
1 0.2 0
0.95 0.25 0
1 0.25 0
1 0.2 0
1.05 0.2 0
1 0.25 0
1.05 0.25 0
1.05 0.2 0
1.1 0.2 0
1.05 0.25 0
1.1 0.25 0
1.1 0.2 0
1.15 0.2 0
1.1 0.25 0
1.15 0.25 0
1.15 0.2 0
1.2 0.2 0
1.15 0.25 0
1.2 0.25 0
1.2 0.2 0
1.25 0.2 0
1.2 0.25 0
1.25 0.25 0
1.25 0.2 0
1.3 0.2 0
1.25 0.25 0
1.3 0.25 0
1.3 0.2 0
1.35 0.2 0
1.3 0.25 0
1.35 0.25 0
1.35 0.2 0
1.4 0.2 0
1.35 0.25 0
1.4 0.25 0
1.4 0.2 0
1.45 0.2 0
1.4 0.25 0
1.45 0.25 0
1.45 0.2 0
1.5 0.2 0
1.45 0.25 0
1.5 0.25 0
1.5 0.2 0
1.55 0.2 0
1.5 0.25 0
1.55 0.25 0
1.55 0.2 0
1.6 0.2 0
1.55 0.25 0
1.6 0.25 0
1.6 0.2 0
1.65 0.2 0
1.6 0.25 0
1.65 0.25 0
1.65 0.2 0
1.7 0.2 0
1.65 0.25 0
1.7 0.25 0
1.7 0.2 0
1.75 0.2 0
1.7 0.25 0
1.75 0.25 0
1.75 0.2 0
1.8 0.2 0
1.75 0.25 0
1.8 0.25 0
1.8 0.2 0
1.85 0.2 0
1.8 0.25 0
1.85 0.25 0
1.85 0.2 0
1.9 0.2 0
1.85 0.25 0
1.9 0.25 0
1.9 0.2 0
1.95 0.2 0
1.9 0.25 0
1.95 0.25 0
1.95 0.2 0
2 0.2 0
1.95 0.25 0
2 0.25 0
0 0.25 0
0.05 0.25 0
0 0.3 0
0.05 0.3 0
0.05 0.25 0
0.1 0.25 0
0.05 0.3 0
0.1 0.3 0
0.1 0.25 0
0.15 0.25 0
0.1 0.3 0
0.15 0.3 0
0.15 0.25 0
0.2 0.25 0
0.15 0.3 0
0.2 0.3 0
0.2 0.25 0
0.25 0.25 0
0.2 0.3 0
0.25 0.3 0
0.25 0.25 0
0.3 0.25 0
0.25 0.3 0
0.3 0.3 0
0.3 0.25 0
0.35 0.25 0
0.3 0.3 0
0.35 0.3 0
0.35 0.25 0
0.4 0.25 0
0.35 0.3 0
0.4 0.3 0
0.4 0.25 0
0.45 0.25 0
0.4 0.3 0
0.45 0.3 0
0.45 0.25 0
0.5 0.25 0
0.45 0.3 0
0.5 0.3 0
0.5 0.25 0
0.55 0.25 0
0.5 0.3 0
0.55 0.3 0
0.55 0.25 0
0.6 0.25 0
0.55 0.3 0
0.6 0.3 0
0.6 0.25 0
0.65 0.25 0
0.6 0.3 0
0.65 0.3 0
0.65 0.25 0
0.7 0.25 0
0.65 0.3 0
0.7 0.3 0
0.7 0.25 0
0.75 0.25 0
0.7 0.3 0
0.75 0.3 0
0.75 0.25 0
0.8 0.25 0
0.75 0.3 0
0.8 0.3 0
0.8 0.25 0
0.85 0.25 0
0.8 0.3 0
0.85 0.3 0
0.85 0.25 0
0.9 0.25 0
0.85 0.3 0
0.9 0.3 0
0.9 0.25 0
0.95 0.25 0
0.9 0.3 0
0.95 0.3 0
0.95 0.25 0
1 0.25 0
0.95 0.3 0
1 0.3 0
1 0.25 0
1.05 0.25 0
1 0.3 0
1.05 0.3 0
1.05 0.25 0
1.1 0.25 0
1.05 0.3 0
1.1 0.3 0
1.1 0.25 0
1.15 0.25 0
1.1 0.3 0
1.15 0.3 0
1.15 0.25 0
1.2 0.25 0
1.15 0.3 0
1.2 0.3 0
1.2 0.25 0
1.25 0.25 0
1.2 0.3 0
1.25 0.3 0
1.25 0.25 0
1.3 0.25 0
1.25 0.3 0
1.3 0.3 0
1.3 0.25 0
1.35 0.25 0
1.3 0.3 0
1.35 0.3 0
1.35 0.25 0
1.4 0.25 0
1.35 0.3 0
1.4 0.3 0
1.4 0.25 0
1.45 0.25 0
1.4 0.3 0
1.45 0.3 0
1.45 0.25 0
1.5 0.25 0
[...]
POINT_DATA 3200
SCALARS x_displacement double 1
LOOKUP_TABLE default
0 -2.2211 0 -0.968481 -2.2211 -3.8371 -0.968481 -2.07453 -3.8371 -5.05546 -2.07453 -3.07189 -5.05546 -6.04787 -3.07189 -3.95722 -6.04787 -6.92249 -3.95722 -4.7552 -6.92249 -7.73397 -4.7552 -5.5039 -7.73397 -8.51293 -5.5039 -6.23183 -8.51293 -9.28021 -6.23183 -6.95463 -9.28021 -10.0493 -6.95463 -7.67974 -10.0493 -10.8274 -7.67974 -8.41024 -10.8274 -11.6176 -8.41024 -9.14622 -11.6176 -12.4209 -9.14622 -9.88498 -12.4209 -13.2373 -9.88498 -10.6214 -13.2373 -14.0676 -10.6214 -11.3488 -14.0676 -14.9136 -11.3488 -12.0596 -14.9136 -15.778 -12.0596 -12.7576 -15.778 -16.6627 -12.7576 -13.4714 -16.6627 -17.5633 -13.4714 -14.2071 -17.5633 -18.4701 -14.2071 -14.9587 -18.4701 -19.3687 -14.9587 -15.7174 -19.3687 -20.2393 -15.7174 -16.4714 -20.2393 -21.0561 -16.4714 -17.2086 -21.0561 -21.7862 -17.2086 -17.9177 -21.7862 -22.4021 -17.9177 -18.587 -22.4021 -22.9285 -18.587 -19.2333 -22.9285 -23.4436 -19.2333 -19.8934 -23.4436 -23.9527 -19.8934 -20.5339 -23.9527 -24.4366 -20.5339 -21.1215 -24.4366 -24.8867 -21.1215 -21.6471 -24.8867 -25.2924 -21.6471 -22.1151 -25.2924 -25.635 -22.1151 -22.5264 -25.635 -25.9076 -22.5264 -22.8705 -25.9076 -26.151 -22.8705 -23.1193 -26.151 -26.3544 -23.1193 -23.3037 -26.3544 -26.8339 -23.3037 -23.531 -26.8339 -27.1373 -23.531 -23.6948 -27.1373 -27.238 -23.6948 -23.8937 -27.238 -27.2553 -23.8937 -23.9953 -27.2553 -27.2368 -23.9953 -24.0307 -27.2368 -27.226 -24.0307 -24.0404 0 -0.968481 0 -0.0904898 -0.968481 -2.07453 -0.0904898 -0.692224 -2.07453 -3.07189 -0.692224 -1.44841 -3.07189 -3.95722 -1.44841 -2.11985 -3.95722 -4.7552 -2.11985 -2.73802 -4.7552 -5.5039 -2.73802 -3.35374 -5.5039 -6.23183 -3.35374 -3.98964 -6.23183 -6.95463 -3.98964 -4.64467 -6.95463 -7.67974 -4.64467 -5.31306 -7.67974 -8.41024 -5.31306 -5.99191 -8.41024 -9.14622 -5.99191 -6.67737 -9.14622 -9.88498 -6.67737 -7.36242 -9.88498 -10.6214 -7.36242 -8.03429 -10.6214 -11.3488 -8.03429 -8.67618 -11.3488 -12.0596 -8.67618 -9.27418 -12.0596 -12.7576 -9.27418 -9.83556 -12.7576 -13.4714 -9.83556 -10.4057 -13.4714 -14.2071 -10.4057 -11.002 -14.2071 -14.9587 -11.002 -11.624 -14.9587 -15.7174 -11.624 -12.2692 -15.7174 -16.4714 -12.2692 -12.9353 -16.4714 -17.2086 -12.9353 -13.6224 -17.2086 -17.9177 -13.6224 -14.336 -17.9177 -18.587 -14.336 -15.0804 -18.587 -19.2333 -15.0804 -15.842 -19.2333 -19.8934 -15.842 -16.5754 -19.8934 -20.5339 -16.5754 -17.2458 -20.5339 -21.1215 -17.2458 -17.842 -21.1215 -21.6471 -17.842 -18.3706 -21.6471 -22.1151 -18.3706 -18.854 -22.1151 -22.5264 -18.854 -19.2886 -22.5264 -22.8705 -19.2886 -19.6741 -22.8705 -23.1193 -19.6741 -20.0132 -23.1193 -23.3037 -20.0132 -20.2814 -23.3037 -23.531 -20.2814 -20.4493 -23.531 -23.6948 -20.4493 -20.6135 -23.6948 -23.8937 -20.6135 -20.7499 -23.8937 -23.9953 -20.7499 -20.8685 -23.9953 -24.0307 -20.8685 -20.919 -24.0307 -24.0404 -20.919 -20.92 0 -0.0904898 0 0.614856 -0.0904898 -0.692224 0.614856 0.315866 -0.692224 -1.44841 0.315866 -0.158341 -1.44841 -2.11985 -0.158341 -0.618677 -2.11985 -2.73802 -0.618677 -1.07465 -2.73802 -3.35374 -1.07465 -1.5536 -3.35374 -3.98964 -1.5536 -2.07459 -3.98964 -4.64467 -2.07459 -2.64388 -4.64467 -5.31306 -2.64388 -3.25637 -5.31306 -5.99191 -3.25637 -3.90484 -5.99191 -6.67737 -3.90484 -4.58554 -6.67737 -7.36242 -4.58554 -5.29195 -7.36242 -8.03429 -5.29195 -6.00268 -8.03429 -8.67618 -6.00268 -6.67852 -8.67618 -9.27418 -6.67852 -7.29532 -9.27418 -9.83556 -7.29532 -7.87334 -9.83556 -10.4057 -7.87334 -8.43963 -10.4057 -11.002 -8.43963 -8.99788 -11.002 -11.624 -8.99788 -9.54679 -11.624 -12.2692 -9.54679 -10.0804 -12.2692 -12.9353 -10.0804 -10.5914 -12.9353 -13.6224 -10.5914 -11.0821 -13.6224 -14.336 -11.0821 -11.5732 -14.336 -15.0804 -11.5732 -12.0989 -15.0804 -15.842 -12.0989 -12.6821 -15.842 -16.5754 -12.6821 -13.3181 -16.5754 -17.2458 -13.3181 -13.9657 -17.2458 -17.842 -13.9657 -14.5722 -17.842 -18.3706 -14.5722 -15.1187 -18.3706 -18.854 -15.1187 -15.6128 -18.854 -19.2886 -15.6128 -16.07 -19.2886 -19.6741 -16.07 -16.5048 -19.6741 -20.0132 -16.5048 -16.8849 -20.0132 -20.2814 -16.8849 -17.2016 -20.2814 -20.4493 -17.2016 -17.4611 -20.4493 -20.6135 -17.4611 -17.6347 -20.6135 -20.7499 -17.6347 -17.768 -20.7499 -20.8685 -17.768 -17.9075 -20.8685 -20.919 -17.9075 -17.9594 -20.919 -20.92 -17.9594 -17.9746 0 0.614856 0 1.04717 0.614856 0.315866 1.04717 1.1483 0.315866 -0.158341 1.1483 0.823962 -0.158341 -0.618677 0.823962 0.442996 -0.618677 -1.07465 0.442996 0.0340204 -1.07465 -1.5536 0.0340204 -0.40052 -1.5536 -2.07459 -0.40052 -0.873248 -2.07459 -2.64388 -0.873248 -1.4082 -2.64388 -3.25637 -1.4082 -2.01865 -3.25637 -3.90484 -2.01865 -2.70036 -3.90484 -4.58554 -2.70036 -3.43974 -4.58554 -5.29195 -3.43974 -4.21627 -5.29195 -6.00268 -4.21627 -4.99819 -6.00268 -6.67852 -4.99819 -5.74872 -6.67852 -7.29532 -5.74872 -6.44109 -7.29532 -7.87334 -6.44109 -7.06445 -7.87334 -8.43963 -7.06445 -7.62168 -8.43963 -8.99788 -7.62168 -8.12162 -8.99788 -9.54679 -8.12162 -8.56523 -9.54679 -10.0804 -8.56523 -8.95136 -10.0804 -10.5914 -8.95136 -9.28583 -10.5914 -11.0821 -9.28583 -9.58114 -11.0821 -11.5732 -9.58114 -9.85223 -11.5732 -12.0989 -9.85223 -10.1112 -12.0989 -12.6821 -10.1112 -10.3637 -12.6821 -13.3181 -10.3637 -10.6264 -13.3181 -13.9657 -10.6264 -10.9607 -13.9657 -14.5722 -10.9607 -11.4145 -14.5722 -15.1187 -11.4145 -11.9283 -15.1187 -15.6128 -11.9283 -12.439 -15.6128 -16.07 -12.439 -12.9313 -16.07 -16.5048 -12.9313 -13.3748 -16.5048 -16.8849 -13.3748 -13.7852 -16.8849 -17.2016 -13.7852 -14.1578 -17.2016 -17.4611 -14.1578 -14.4703 -17.4611 -17.6347 -14.4703 -14.7213 -17.6347 -17.768 -14.7213 -14.8992 -17.768 -17.9075 -14.8992 -15.0457 -17.9075 -17.9594 -15.0457 -15.2977 -17.9594 -17.9746 -15.2977 -15.1774 0 1.04717 0 1.64867 1.04717 1.1483 1.64867 1.88623 1.1483 0.823962 1.88623 1.58401 0.823962 0.442996 1.58401 1.2593 0.442996 0.0340204 1.2593 0.918137 0.0340204 -0.40052 0.918137 0.54741 -0.40052 -0.873248 0.54741 0.12801 -0.873248 -1.4082 0.12801 -0.362434 -1.4082 -2.01865 -0.362434 -0.943888 -2.01865 -2.70036 -0.943888 -1.6193 -2.70036 -3.43974 -1.6193 -2.36806 -3.43974 -4.21627 -2.36806 -3.16043 -4.21627 -4.99819 -3.16043 -3.96575 -4.99819 -5.74872 -3.96575 -4.75264 -5.74872 -6.44109 -4.75264 -5.4874 -6.44109 -7.06445 -5.4874 -6.14268 -7.06445 -7.62168 -6.14268 -6.70156 -7.62168 -8.12162 -6.70156 -7.15714 -8.12162 -8.56523 -7.15714 -7.51385 -8.56523 -8.95136 -7.51385 -7.78591 -8.95136 -9.28583 -7.78591 -7.99437 -9.28583 -9.58114 -7.99437 -8.1643 -9.58114 -9.85223 -8.1643 -8.31936 -9.85223 -10.1112 -8.31936 -8.47491 -10.1112 -10.3637 -8.47491 -8.63451 -10.3637 -10.6264 -8.63451 -8.78502 -10.6264 -10.9607 -8.78502 -8.88972 -10.9607 -11.4145 -8.88972 -8.93794 -11.4145 -11.9283 -8.93794 -9.06306 -11.9283 -12.439 -9.06306 -9.39767 -12.439 -12.9313 -9.39767 -9.83956 -12.9313 -13.3748 -9.83956 -10.2994 -13.3748 -13.7852 -10.2994 -10.7567 -13.7852 -14.1578 -10.7567 -11.1653 -14.1578 -14.4703 -11.1653 -11.535 -14.4703 -14.7213 -11.535 -11.8459 -14.7213 -14.8992 -11.8459 -12.0977 -14.8992 -15.0457 -12.0977 -12.2901 -15.0457 -15.2977 -12.2901 -12.4229 -15.2977 -15.1774 -12.4229 -12.8909 0 1.64867 0 1.88257 1.64867 1.88623 1.88257 2.47752 1.88623 1.58401 2.47752 2.17589 1.58401 1.2593 2.17589 1.91422 1.2593 0.918137 1.91422 1.63726 0.918137 0.54741 1.63726 1.31742 0.54741 0.12801 1.31742 0.935566 0.12801 -0.362434 0.935566 0.47045 -0.362434 -0.943888 0.47045 -0.0961053 -0.943888 -1.6193 -0.0961053 -0.765451 -1.6193 -2.36806 -0.765451 -1.51635 -2.36806 -3.16043 -1.51635 -2.30908 -3.16043 -3.96575 -2.30908 -3.10263 -3.96575 -4.75264 -3.10263 -3.86373 -4.75264 -5.4874 -3.86373 -4.56498 -5.4874 -6.14268 -4.56498 -5.17724 -6.14268 -6.70156 -5.17724 -5.67669 -6.70156 -7.15714 -5.67669 -6.05671 -7.15714 -7.51385 -6.05671 -6.32466 -7.51385 -7.78591 -6.32466 -6.49997 -7.78591 -7.99437 -6.49997 -6.61066 -7.99437 -8.1643 -6.61066 -6.68689 -8.1643 -8.31936 -6.68689 -6.7541 -8.31936 -8.47491 -6.7541 -6.82927 -8.47491 -8.63451 -6.82927 -6.91919 -8.63451 -8.78502 -6.91919 -7.01876 -8.78502 -8.88972 -7.01876 -7.11146 -8.88972 -8.93794 -7.11146 -7.16934 -8.93794 -9.06306 -7.16934 -7.14029 -9.06306 -9.39767 -7.14029 -7.0264 -9.39767 -9.83956 -7.0264 -7.05174 -9.83956 -10.2994 -7.05174 -7.35884 -10.2994 -10.7567 -7.35884 -7.79015 -10.7567 -11.1653 -7.79015 -8.25049 -11.1653 -11.535 -8.25049 -8.66637 -11.535 -11.8459 -8.66637 -9.02848 -11.8459 -12.0977 -9.02848 -9.34924 -12.0977 -12.2901 -9.34924 -9.64338 -12.2901 -12.4229 -9.64338 -9.91667 -12.4229 -12.8909 -9.91667 -10.086 0 1.88257 0 2.39258 1.88257 2.47752 2.39258 2.82495 2.47752 2.17589 2.82495 2.52529 2.17589 1.91422 2.52529 2.30573 1.91422 1.63726 2.30573 2.06925 1.63726 1.31742 2.06925 1.77885 1.31742 0.935566 1.77885 1.41134 0.935566 0.47045 1.41134 0.950771 0.47045 -0.0961053 0.950771 0.391763 -0.0961053 -0.765451 0.391763 -0.254403 -0.765451 -1.51635 -0.254403 -0.95573 -1.51635 -2.30908 -0.95573 -1.66926 -2.30908 -3.10263 -1.66926 -2.3582 -3.10263 -3.86373 -2.3582 -2.99787 -3.86373 -4.56498 -2.99787 -3.57024 -4.56498 -5.17724 -3.57024 -4.06022 -5.17724 -5.67669 -4.06022 -4.45402 -5.67669 -6.05671 -4.45402 -4.7434 -6.05671 -6.32466 -4.7434 -4.93497 -6.32466 -6.49997 -4.93497 -5.04708 -6.49997 -6.61066 -5.04708 -5.10413 -6.61066 -6.68689 -5.10413 -5.13136 -6.68689 -6.7541 -5.13136 -5.15039 -6.7541 -6.82927 -5.15039 -5.17638 -6.82927 -6.91919 -5.17638 -5.21693 -6.91919 -7.01876 -5.21693 -5.27204 -7.01876 -7.11146 -5.27204 -5.33332 -7.11146 -7.16934 -5.33332 -5.38084 -7.16934 -7.14029 -5.38084 -5.38946 -7.14029 -7.0264 -5.38946 -5.3383 -7.0264 -7.05174 -5.3383 -5.19298 -7.05174 -7.35884 -5.19298 -5.01797 -7.35884 -7.79015 -5.01797 -5.09248 -7.79015 -8.25049 -5.09248 -5.43291 -8.25049 -8.66637 -5.43291 -5.86253 -8.66637 -9.02848 -5.86253 -6.29695 -9.02848 -9.34924 -6.29695 -6.68039 -9.34924 -9.64338 -6.68039 -7.06249 -9.64338 -9.91667 -7.06249 -7.40712 -9.91667 -10.086 -7.40712 -7.79546 0 2.39258 0 3.17088 2.39258 2.82495 3.17088 2.84626 2.82495 2.52529 2.84626 2.49683 2.52529 2.30573 2.49683 2.25183 2.30573 2.06925 2.25183 2.02364 2.06925 1.77885 2.02364 1.7514 1.77885 1.41134 1.7514 1.40482 1.41134 0.950771 1.40482 0.975877 0.950771 0.391763 0.975877 0.477672 0.391763 -0.254403 0.477672 -0.0613317 -0.254403 -0.95573 -0.0613317 -0.609719 -0.95573 -1.66926 -0.609719 -1.14139 -1.66926 -2.3582 -1.14139 -1.63668 -2.3582 -2.99787 -1.63668 -2.08331 -2.99787 -3.57024 -2.08331 -2.4744 -3.57024 -4.06022 -2.4744 -2.80429 -4.06022 -4.45402 -2.80429 -3.06735 -4.45402 -4.7434 -3.06735 -3.2601 -4.7434 -4.93497 -3.2601 -3.38511 -4.93497 -5.04708 -3.38511 -3.4535 -5.04708 -5.10413 -3.4535 -3.48182 -5.10413 -5.13136 -3.48182 -3.48762 -5.13136 -5.15039 -3.48762 -3.48637 -5.15039 -5.17638 -3.48637 -3.48969 -5.17638 -5.21693 -3.48969 -3.50431 -5.21693 -5.27204 -3.50431 -3.53124 -5.27204 -5.33332 -3.53124 -3.56474 -5.33332 -5.38084 -3.56474 -3.59326 -5.38084 -5.38946 -3.59326 -3.6023 -5.38946 -5.3383 -3.6023 -3.57428 -5.3383 -5.19298 -3.57428 -3.49934 -5.19298 -5.01797 -3.49934 -3.37825 -5.01797 -5.09248 -3.37825 -3.209 -5.09248 -5.43291 -3.209 -3.12281 -5.43291 -5.86253 -3.12281 -3.31814 -5.86253 -6.29695 -3.31814 -3.69252 -6.29695 -6.68039 -3.69252 -4.11707 -6.68039 -7.06249 -4.11707 -4.56719 -7.06249 -7.40712 -4.56719 -4.95142 -7.40712 -7.79546 -4.95142 -5.26718 0 3.17088 0 1.13122 3.17088 2.84626 1.13122 2.1001 2.84626 2.49683 2.1001 1.71476 2.49683 2.25183 1.71476 1.50856 2.25183 2.02364 1.50856 1.33372 2.02364 1.7514 1.33372 1.12323 1.7514 1.40482 1.12323 0.866565 1.40482 0.975877 0.866565 0.576825 0.975877 0.477672 0.576825 0.271939 0.477672 -0.0613317 0.271939 -0.0324068 -0.0613317 -0.609719 -0.0324068 -0.325136 -0.609719 -1.14139 -0.325136 -0.599445 -1.14139 -1.63668 -0.599445 -0.8508 -1.63668 -2.08331 -0.8508 -1.07548 -2.08331 -2.4744 -1.07548 -1.27065 -2.4744 -2.80429 -1.27065 -1.43418 -2.80429 -3.06735 -1.43418 -1.56423 -3.06735 -3.2601 -1.56423 -1.65972 -3.2601 -3.38511 -1.65972 -1.72158 -3.38511 -3.4535 -1.72158 -1.75439 -3.4535 -3.48182 -1.75439 -1.76603 -3.48182 -3.48762 -1.76603 -1.76543 -3.48762 -3.48637 -1.76543 -1.76068 -3.48637 -3.48969 -1.76068 -1.75808 -3.48969 -3.50431 -1.75808 -1.76157 -3.50431 -3.53124 -1.76157 -1.77205 -3.53124 -3.56474 -1.77205 -1.78696 -3.56474 -3.59326 -1.78696 -1.80064 -3.59326 -3.6023 -1.80064 -1.8051 -3.6023 -3.57428 -1.8051 -1.79275 -3.57428 -3.49934 -1.79275 -1.75737 -3.49934 -3.37825 -1.75737 -1.69276 -3.37825 -3.209 -1.69276 -1.61061 -3.209 -3.12281 -1.61061 -1.53346 -3.12281 -3.31814 -1.53346 -1.48623 -3.31814 -3.69252 -1.48623 -1.56225 -3.69252 -4.11707 -1.56225 -1.82632 -4.11707 -4.56719 -1.82632 -2.16768 -4.56719 -4.95142 -2.16768 -2.61842 -4.95142 -5.26718 -2.61842 -2.71264 0 1.13122 0 -1.07182e-09 1.13122 2.1001 -1.07182e-09 -6.90491e-10 2.1001 1.71476 -6.90491e-10 -5.59253e-10 1.71476 1.50856 -5.59253e-10 -3.90551e-11 1.50856 1.33372 -3.90551e-11 1.80057e-12 1.33372 1.12323 1.80057e-12 -3.40646e-12 1.12323 0.866565 -3.40646e-12 -6.87764e-12 0.866565 0.576825 -6.87764e-12 -4.88865e-12 0.576825 0.271939 -4.88865e-12 -3.40905e-12 0.271939 -0.0324068 -3.40905e-12 -1.75939e-12 -0.0324068 -0.325136 -1.75939e-12 -6.27616e-13 -0.325136 -0.599445 -6.27616e-13 -4.6567e-13 -0.599445 -0.8508 -4.6567e-13 -2.04142e-12 -0.8508 -1.07548 -2.04142e-12 -4.1304e-12 -1.07548 -1.27065 -4.1304e-12 -5.43302e-12 -1.27065 -1.43418 -5.43302e-12 -7.83626e-12 -1.43418 -1.56423 -7.83626e-12 -8.81728e-12 -1.56423 -1.65972 -8.81728e-12 -8.81093e-12 -1.65972 -1.72158 -8.81093e-12 -1.03793e-11 -1.72158 -1.75439 -1.03793e-11 -1.12474e-11 -1.75439 -1.76603 -1.12474e-11 -1.27091e-11 -1.76603 -1.76543 -1.27091e-11 -1.45828e-11 -1.76543 -1.76068 -1.45828e-11 -1.64897e-11 -1.76068 -1.75808 -1.64897e-11 -1.64986e-11 -1.75808 -1.76157 -1.64986e-11 -1.62264e-11 -1.76157 -1.77205 -1.62264e-11 -1.63695e-11 -1.77205 -1.78696 -1.63695e-11 -1.63292e-11 -1.78696 -1.80064 -1.63292e-11 -1.14347e-11 -1.80064 -1.8051 -1.14347e-11 -1.15382e-11 -1.8051 -1.79275 -1.15382e-11 -6.09222e-12 -1.79275 -1.75737 -6.09222e-12 -2.86382e-12 -1.75737 -1.69276 -2.86382e-12 -2.03121e-12 -1.69276 -1.61061 -2.03121e-12 4.10809e-12 -1.61061 -1.53346 4.10809e-12 6.87144e-12 -1.53346 -1.48623 6.87144e-12 8.13284e-12 -1.48623 -1.56225 8.13284e-12 1.13527e-11 -1.56225 -1.82632 1.13527e-11 9.13879e-12 -1.82632 -2.16768 9.13879e-12 6.13894e-12 -2.16768 -2.61842 6.13894e-12 5.03716e-12 -2.61842 -2.71264 5.03716e-12 5.55263e-12 0 -1.07182e-09 0 -1.13122 -1.07182e-09 -6.90491e-10 -1.13122 -2.1001 -6.90491e-10 -5.59253e-10 -2.1001 -1.71476 -5.59253e-10 -3.90551e-11 -1.71476 -1.50856 -3.90551e-11 1.80057e-12 -1.50856 -1.33372 1.80057e-12 -3.40646e-12 -1.33372 -1.12323 -3.40646e-12 -6.87764e-12 -1.12323 -0.866565 -6.87764e-12 -4.88865e-12 -0.866565 -0.576825 -4.88865e-12 -3.40905e-12 -0.576825 -0.271939 -3.40905e-12 -1.75939e-12 -0.271939 0.0324068 -1.75939e-12 -6.27616e-13 0.0324068 0.325136 -6.27616e-13 -4.6567e-13 0.325136 0.599445 -4.6567e-13 -2.04142e-12 0.599445 0.8508 -2.04142e-12 -4.1304e-12 0.8508 1.07548 -4.1304e-12 -5.43302e-12 1.07548 1.27065 -5.43302e-12 -7.83626e-12 1.27065 1.43418 -7.83626e-12 -8.81728e-12 1.43418 1.56423 -8.81728e-12 -8.81093e-12 1.56423 1.65972 -8.81093e-12 -1.03793e-11 1.65972 1.72158 -1.03793e-11 -1.12474e-11 1.72158 1.75439 -1.12474e-11 -1.27091e-11 1.75439 1.76603 -1.27091e-11 -1.45828e-11 1.76603 1.76543 -1.45828e-11 -1.64897e-11 1.76543 1.76068 -1.64897e-11 -1.64986e-11 1.76068 1.75808 -1.64986e-11 -1.62264e-11 1.75808 1.76157 -1.62264e-11 -1.63695e-11 1.76157 1.77205 -1.63695e-11 -1.63292e-11 1.77205 1.78696 -1.63292e-11 -1.14347e-11 1.78696 1.80064 -1.14347e-11 -1.15382e-11 1.80064 1.8051 -1.15382e-11 -6.09222e-12 1.8051 1.79275 -6.09222e-12 -2.86382e-12 1.79275 1.75737 -2.86382e-12 -2.03121e-12 1.75737 1.69276 -2.03121e-12 4.10809e-12 1.69276 1.61061 4.10809e-12 6.87144e-12 1.61061 1.53346 6.87144e-12 8.13284e-12 1.53346 1.48623 8.13284e-12 1.13527e-11 1.48623 1.56225 1.13527e-11 9.13879e-12 1.56225 1.82632 9.13879e-12 6.13894e-12 1.82632 2.16768 6.13894e-12 5.03716e-12 2.16768 2.61842 5.03716e-12 5.55263e-12 2.61842 2.71264 0 -1.13122 0 -3.17088 -1.13122 -2.1001 -3.17088 -2.84626 -2.1001 -1.71476 -2.84626 -2.49683 -1.71476 -1.50856 -2.49683 -2.25183 -1.50856 -1.33372 -2.25183 -2.02364 -1.33372 -1.12323 -2.02364 -1.7514 -1.12323 -0.866565 -1.7514 -1.40482 -0.866565 -0.576825 -1.40482 -0.975877 -0.576825 -0.271939 -0.975877 -0.477672 -0.271939 0.0324068 -0.477672 0.0613317 0.0324068 0.325136 0.0613317 0.609719 0.325136 0.599445 0.609719 1.14139 0.599445 0.8508 1.14139 1.63668 0.8508 1.07548 1.63668 2.08331 1.07548 1.27065 2.08331 2.4744 1.27065 1.43418 2.4744 2.80429 1.43418 1.56423 2.80429 3.06735 1.56423 1.65972 3.06735 3.2601 1.65972 1.72158 3.2601 3.38511 1.72158 1.75439 3.38511 3.4535 1.75439 1.76603 3.4535 3.48182 1.76603 1.76543 3.48182 3.48762 1.76543 1.76068 3.48762 3.48637 1.76068 1.75808 3.48637 3.48969 1.75808 1.76157 3.48969 3.50431 1.76157 1.77205 3.50431 3.53124 1.77205 1.78696 3.53124 3.56474 1.78696 1.80064 3.56474 3.59326 1.80064 1.8051 3.59326 3.6023 1.8051 1.79275 3.6023 3.57428 1.79275 1.75737 3.57428 3.49934 1.75737 1.69276 3.49934 3.37825 1.69276 1.61061 3.37825 3.209 1.61061 1.53346 3.209 3.12281 1.53346 1.48623 3.12281 3.31814 1.48623 1.56225 3.31814 3.69252 1.56225 1.82632 3.69252 4.11707 1.82632 2.16768 4.11707 4.56719 2.16768 2.61842 4.56719 4.95142 2.61842 2.71264 4.95142 5.26718 0 -3.17088 0 -2.39258 -3.17088 -2.84626 -2.39258 -2.82495 -2.84626 -2.49683 -2.82495 -2.52529 -2.49683 -2.25183 -2.52529 -2.30573 -2.25183 -2.02364 -2.30573 -2.06925 -2.02364 -1.7514 -2.06925 -1.77885 -1.7514 -1.40482 -1.77885 -1.41134 -1.40482 -0.975877 -1.41134 -0.950771 -0.975877 -0.477672 -0.950771 -0.391763 -0.477672 0.0613317 -0.391763 0.254403 0.0613317 0.609719 0.254403 0.95573 0.609719 1.14139 0.95573 1.66926 1.14139 1.63668 1.66926 2.3582 1.63668 2.08331 2.3582 2.99787 2.08331 2.4744 2.99787 3.57024 2.4744 2.80429 3.57024 4.06022 2.80429 3.06735 4.06022 4.45402 3.06735 3.2601 4.45402 4.7434 3.2601 3.38511 4.7434 4.93497 3.38511 3.4535 4.93497 5.04708 3.4535 3.48182 5.04708 5.10413 3.48182 3.48762 5.10413 5.13136 3.48762 3.48637 5.13136 5.15039 3.48637 3.48969 5.15039 5.17638 3.48969 3.50431 5.17638 5.21693 3.50431 3.53124 5.21693 5.27204 3.53124 3.56474 5.27204 5.33332 3.56474 3.59326 5.33332 5.38084 3.59326 3.6023 5.38084 5.38946 3.6023 3.57428 5.38946 5.3383 3.57428 3.49934 5.3383 5.19298 3.49934 3.37825 5.19298 5.01797 3.37825 3.209 5.01797 5.09248 3.209 3.12281 5.09248 5.43291 3.12281 3.31814 5.43291 5.86253 3.31814 3.69252 5.86253 6.29695 3.69252 4.11707 6.29695 6.68039 4.11707 4.56719 6.68039 7.06249 4.56719 4.95142 7.06249 7.40712 4.95142 5.26718 7.40712 7.79546 0 -2.39258 0 -1.88257 -2.39258 -2.82495 -1.88257 -2.47752 -2.82495 -2.52529 -2.47752 -2.17589 -2.52529 -2.30573 -2.17589 -1.91422 -2.30573 -2.06925 -1.91422 -1.63726 -2.06925 -1.77885 -1.63726 -1.31742 -1.77885 -1.41134 -1.31742 -0.935566 -1.41134 -0.950771 -0.935566 -0.47045 -0.950771 -0.391763 -0.47045 0.0961053 -0.391763 0.254403 0.0961053 0.765451 0.254403 0.95573 0.765451 1.51635 0.95573 1.66926 1.51635 2.30908 1.66926 2.3582 2.30908 3.10263 2.3582 2.99787 3.10263 3.86373 2.99787 3.57024 3.86373 4.56498 3.57024 4.06022 4.56498 5.17724 4.06022 4.45402 5.17724 5.67669 4.45402 4.7434 5.67669 6.05671 4.7434 4.93497 6.05671 6.32466 4.93497 5.04708 6.32466 6.49997 5.04708 5.10413 6.49997 6.61066 5.10413 5.13136 6.61066 6.68689 5.13136 5.15039 6.68689 6.7541 5.15039 5.17638 6.7541 6.82927 5.17638 5.21693 6.82927 6.91919 5.21693 5.27204 6.91919 7.01876 5.27204 5.33332 7.01876 7.11146 5.33332 5.38084 7.11146 7.16934 5.38084 5.38946 7.16934 7.14029 5.38946 5.3383 7.14029 7.0264 5.3383 5.19298 7.0264 7.05174 5.19298 5.01797 7.05174 7.35884 5.01797 5.09248 7.35884 7.79015 5.09248 5.43291 7.79015 8.25049 5.43291 5.86253 8.25049 8.66637 5.86253 6.29695 8.66637 9.02848 6.29695 6.68039 9.02848 9.34924 6.68039 7.06249 9.34924 9.64338 7.06249 7.40712 9.64338 9.91667 7.40712 7.79546 9.91667 10.086 0 -1.88257 0 -1.64867 