# vtk DataFile Version 3.0
#This file was generated by the deal.II library on 2015/8/30 at 10:13:44
ASCII
DATASET UNSTRUCTURED_GRID

POINTS 20 double
1 0 0
2 0 0
1 1 0
2 1 0
0 0 0
0.5 0 0
0 0.5 0
0.5 0.5 0
0.5 0 0
1 0 0
0.5 0.5 0
1 0.5 0
0 0.5 0
0.5 0.5 0
0 1 0
0.5 1 0
0.5 0.5 0
1 0.5 0
0.5 1 0
1 1 0

CELLS 5 25
4	0	1	3	2
4	4	5	7	6
4	8	9	11	10
4	12	13	15	14
4	16	17	19	18

CELL_TYPES 5
 9 9 9 9 9
POINT_DATA 20
SCALARS x_displacement double 1
LOOKUP_TABLE default
-61.729 -87.1611 61.729 87.1611 0 -30.0684 0 9.74926e-14 -30.0684 -61.729 9.74926e-14 4.61853e-14 0 9.74926e-14 0 30.0684 9.74926e-14 4.61853e-14 30.0684 61.729 
SCALARS y_displacement double 1
LOOKUP_TABLE default
-80.0396 -262.162 -80.0396 -262.162 0 -25.9406 0 -19.5827 -25.9406 -80.0396 -19.5827 -80.0396 0 -19.5827 0 -25.9406 -19.5827 -80.0396 -25.9406 -80.0396 
