# vtk DataFile Version 3.0
#This file was generated by the deal.II library on 2015/9/1 at 17:12:53
ASCII
DATASET UNSTRUCTURED_GRID

POINTS 3200 double
0 0 0
0.05 0 0
0 0.05 0
0.05 0.05 0
0.05 0 0
0.1 0 0
0.05 0.05 0
0.1 0.05 0
0.1 0 0
0.15 0 0
0.1 0.05 0
0.15 0.05 0
0.15 0 0
0.2 0 0
0.15 0.05 0
0.2 0.05 0
0.2 0 0
0.25 0 0
0.2 0.05 0
0.25 0.05 0
0.25 0 0
0.3 0 0
0.25 0.05 0
0.3 0.05 0
0.3 0 0
0.35 0 0
0.3 0.05 0
0.35 0.05 0
0.35 0 0
0.4 0 0
0.35 0.05 0
0.4 0.05 0
0.4 0 0
0.45 0 0
0.4 0.05 0
0.45 0.05 0
0.45 0 0
0.5 0 0
0.45 0.05 0
0.5 0.05 0
0.5 0 0
0.55 0 0
0.5 0.05 0
0.55 0.05 0
0.55 0 0
0.6 0 0
0.55 0.05 0
0.6 0.05 0
0.6 0 0
0.65 0 0
0.6 0.05 0
0.65 0.05 0
0.65 0 0
0.7 0 0
0.65 0.05 0
0.7 0.05 0
0.7 0 0
0.75 0 0
0.7 0.05 0
0.75 0.05 0
0.75 0 0
0.8 0 0
0.75 0.05 0
0.8 0.05 0
0.8 0 0
0.85 0 0
0.8 0.05 0
0.85 0.05 0
0.85 0 0
0.9 0 0
0.85 0.05 0
0.9 0.05 0
0.9 0 0
0.95 0 0
0.9 0.05 0
0.95 0.05 0
0.95 0 0
1 0 0
0.95 0.05 0
1 0.05 0
1 0 0
1.05 0 0
1 0.05 0
1.05 0.05 0
1.05 0 0
1.1 0 0
1.05 0.05 0
1.1 0.05 0
1.1 0 0
1.15 0 0
1.1 0.05 0
1.15 0.05 0
1.15 0 0
1.2 0 0
1.15 0.05 0
1.2 0.05 0
1.2 0 0
1.25 0 0
1.2 0.05 0
1.25 0.05 0
1.25 0 0
1.3 0 0
1.25 0.05 0
1.3 0.05 0
1.3 0 0
1.35 0 0
1.3 0.05 0
1.35 0.05 0
1.35 0 0
1.4 0 0
1.35 0.05 0
1.4 0.05 0
1.4 0 0
1.45 0 0
1.4 0.05 0
1.45 0.05 0
1.45 0 0
1.5 0 0
1.45 0.05 0
1.5 0.05 0
1.5 0 0
1.55 0 0
1.5 0.05 0
1.55 0.05 0
1.55 0 0
1.6 0 0
1.55 0.05 0
1.6 0.05 0
1.6 0 0
1.65 0 0
1.6 0.05 0
1.65 0.05 0
1.65 0 0
1.7 0 0
1.65 0.05 0
1.7 0.05 0
1.7 0 0
1.75 0 0
1.7 0.05 0
1.75 0.05 0
1.75 0 0
1.8 0 0
1.75 0.05 0
1.8 0.05 0
1.8 0 0
1.85 0 0
1.8 0.05 0
1.85 0.05 0
1.85 0 0
1.9 0 0
1.85 0.05 0
1.9 0.05 0
1.9 0 0
1.95 0 0
1.9 0.05 0
1.95 0.05 0
1.95 0 0
2 0 0
1.95 0.05 0
2 0.05 0
0 0.05 0
0.05 0.05 0
0 0.1 0
0.05 0.1 0
0.05 0.05 0
0.1 0.05 0
0.05 0.1 0
0.1 0.1 0
0.1 0.05 0
0.15 0.05 0
0.1 0.1 0
0.15 0.1 0
0.15 0.05 0
0.2 0.05 0
0.15 0.1 0
0.2 0.1 0
0.2 0.05 0
0.25 0.05 0
0.2 0.1 0
0.25 0.1 0
0.25 0.05 0
0.3 0.05 0
0.25 0.1 0
0.3 0.1 0
0.3 0.05 0
0.35 0.05 0
0.3 0.1 0
0.35 0.1 0
0.35 0.05 0
0.4 0.05 0
0.35 0.1 0
0.4 0.1 0
0.4 0.05 0
0.45 0.05 0
0.4 0.1 0
0.45 0.1 0
0.45 0.05 0
0.5 0.05 0
0.45 0.1 0
0.5 0.1 0
0.5 0.05 0
0.55 0.05 0
0.5 0.1 0
0.55 0.1 0
0.55 0.05 0
0.6 0.05 0
0.55 0.1 0
0.6 0.1 0
0.6 0.05 0
0.65 0.05 0
0.6 0.1 0
0.65 0.1 0
0.65 0.05 0
0.7 0.05 0
0.65 0.1 0
0.7 0.1 0
0.7 0.05 0
0.75 0.05 0
0.7 0.1 0
0.75 0.1 0
0.75 0.05 0
0.8 0.05 0
0.75 0.1 0
0.8 0.1 0
0.8 0.05 0
0.85 0.05 0
0.8 0.1 0
0.85 0.1 0
0.85 0.05 0
0.9 0.05 0
0.85 0.1 0
0.9 0.1 0
0.9 0.05 0
0.95 0.05 0
0.9 0.1 0
0.95 0.1 0
0.95 0.05 0
1 0.05 0
0.95 0.1 0
1 0.1 0
1 0.05 0
1.05 0.05 0
1 0.1 0
1.05 0.1 0
1.05 0.05 0
1.1 0.05 0
1.05 0.1 0
1.1 0.1 0
1.1 0.05 0
1.15 0.05 0
1.1 0.1 0
1.15 0.1 0
1.15 0.05 0
1.2 0.05 0
1.15 0.1 0
1.2 0.1 0
1.2 0.05 0
1.25 0.05 0
1.2 0.1 0
1.25 0.1 0
1.25 0.05 0
1.3 0.05 0
1.25 0.1 0
1.3 0.1 0
1.3 0.05 0
1.35 0.05 0
1.3 0.1 0
1.35 0.1 0
1.35 0.05 0
1.4 0.05 0
1.35 0.1 0
1.4 0.1 0
1.4 0.05 0
1.45 0.05 0
1.4 0.1 0
1.45 0.1 0
1.45 0.05 0
1.5 0.05 0
1.45 0.1 0
1.5 0.1 0
1.5 0.05 0
1.55 0.05 0
1.5 0.1 0
1.55 0.1 0
1.55 0.05 0
1.6 0.05 0
1.55 0.1 0
1.6 0.1 0
1.6 0.05 0
1.65 0.05 0
1.6 0.1 0
1.65 0.1 0
1.65 0.05 0
1.7 0.05 0
1.65 0.1 0
1.7 0.1 0
1.7 0.05 0
1.75 0.05 0
1.7 0.1 0
1.75 0.1 0
1.75 0.05 0
1.8 0.05 0
1.75 0.1 0
1.8 0.1 0
1.8 0.05 0
1.85 0.05 0
1.8 0.1 0
1.85 0.1 0
1.85 0.05 0
1.9 0.05 0
1.85 0.1 0
1.9 0.1 0
1.9 0.05 0
1.95 0.05 0
1.9 0.1 0
1.95 0.1 0
1.95 0.05 0
2 0.05 0
1.95 0.1 0
2 0.1 0
0 0.1 0
0.05 0.1 0
0 0.15 0
0.05 0.15 0
0.05 0.1 0
0.1 0.1 0
0.05 0.15 0
0.1 0.15 0
0.1 0.1 0
0.15 0.1 0
0.1 0.15 0
0.15 0.15 0
0.15 0.1 0
0.2 0.1 0
0.15 0.15 0
0.2 0.15 0
0.2 0.1 0
0.25 0.1 0
0.2 0.15 0
0.25 0.15 0
0.25 0.1 0
0.3 0.1 0
0.25 0.15 0
0.3 0.15 0
0.3 0.1 0
0.35 0.1 0
0.3 0.15 0
0.35 0.15 0
0.35 0.1 0
0.4 0.1 0
0.35 0.15 0
0.4 0.15 0
0.4 0.1 0
0.45 0.1 0
0.4 0.15 0
0.45 0.15 0
0.45 0.1 0
0.5 0.1 0
0.45 0.15 0
0.5 0.15 0
0.5 0.1 0
0.55 0.1 0
0.5 0.15 0
0.55 0.15 0
0.55 0.1 0
0.6 0.1 0
0.55 0.15 0
0.6 0.15 0
0.6 0.1 0
0.65 0.1 0
0.6 0.15 0
0.65 0.15 0
0.65 0.1 0
0.7 0.1 0
0.65 0.15 0
0.7 0.15 0
0.7 0.1 0
0.75 0.1 0
0.7 0.15 0
0.75 0.15 0
0.75 0.1 0
0.8 0.1 0
0.75 0.15 0
0.8 0.15 0
0.8 0.1 0
0.85 0.1 0
0.8 0.15 0
0.85 0.15 0
0.85 0.1 0
0.9 0.1 0
0.85 0.15 0
0.9 0.15 0
0.9 0.1 0
0.95 0.1 0
0.9 0.15 0
0.95 0.15 0
0.95 0.1 0
1 0.1 0
0.95 0.15 0
1 0.15 0
1 0.1 0
1.05 0.1 0
1 0.15 0
1.05 0.15 0
1.05 0.1 0
1.1 0.1 0
1.05 0.15 0
1.1 0.15 0
1.1 0.1 0
1.15 0.1 0
1.1 0.15 0
1.15 0.15 0
1.15 0.1 0
1.2 0.1 0
1.15 0.15 0
1.2 0.15 0
1.2 0.1 0
1.25 0.1 0
1.2 0.15 0
1.25 0.15 0
1.25 0.1 0
1.3 0.1 0
1.25 0.15 0
1.3 0.15 0
1.3 0.1 0
1.35 0.1 0
1.3 0.15 0
1.35 0.15 0
1.35 0.1 0
1.4 0.1 0
1.35 0.15 0
1.4 0.15 0
1.4 0.1 0
1.45 0.1 0
1.4 0.15 0
1.45 0.15 0
1.45 0.1 0
1.5 0.1 0
1.45 0.15 0
1.5 0.15 0
1.5 0.1 0
1.55 0.1 0
1.5 0.15 0
1.55 0.15 0
1.55 0.1 0
1.6 0.1 0
1.55 0.15 0
1.6 0.15 0
1.6 0.1 0
1.65 0.1 0
1.6 0.15 0
1.65 0.15 0
1.65 0.1 0
1.7 0.1 0
1.65 0.15 0
1.7 0.15 0
1.7 0.1 0
1.75 0.1 0
1.7 0.15 0
1.75 0.15 0
1.75 0.1 0
1.8 0.1 0
1.75 0.15 0
1.8 0.15 0
1.8 0.1 0
1.85 0.1 0
1.8 0.15 0
1.85 0.15 0
1.85 0.1 0
1.9 0.1 0
1.85 0.15 0
1.9 0.15 0
1.9 0.1 0
1.95 0.1 0
1.9 0.15 0
1.95 0.15 0
1.95 0.1 0
2 0.1 0
1.95 0.15 0
2 0.15 0
0 0.15 0
0.05 0.15 0
0 0.2 0
0.05 0.2 0
0.05 0.15 0
0.1 0.15 0
0.05 0.2 0
0.1 0.2 0
0.1 0.15 0
0.15 0.15 0
0.1 0.2 0
0.15 0.2 0
0.15 0.15 0
0.2 0.15 0
0.15 0.2 0
0.2 0.2 0
0.2 0.15 0
0.25 0.15 0
0.2 0.2 0
0.25 0.2 0
0.25 0.15 0
0.3 0.15 0
0.25 0.2 0
0.3 0.2 0
0.3 0.15 0
0.35 0.15 0
0.3 0.2 0
0.35 0.2 0
0.35 0.15 0
0.4 0.15 0
0.35 0.2 0
0.4 0.2 0
0.4 0.15 0
0.45 0.15 0
0.4 0.2 0
0.45 0.2 0
0.45 0.15 0
0.5 0.15 0
0.45 0.2 0
0.5 0.2 0
0.5 0.15 0
0.55 0.15 0
0.5 0.2 0
0.55 0.2 0
0.55 0.15 0
0.6 0.15 0
0.55 0.2 0
0.6 0.2 0
0.6 0.15 0
0.65 0.15 0
0.6 0.2 0
0.65 0.2 0
0.65 0.15 0
0.7 0.15 0
0.65 0.2 0
0.7 0.2 0
0.7 0.15 0
0.75 0.15 0
0.7 0.2 0
0.75 0.2 0
0.75 0.15 0
0.8 0.15 0
0.75 0.2 0
0.8 0.2 0
0.8 0.15 0
0.85 0.15 0
0.8 0.2 0
0.85 0.2 0
0.85 0.15 0
0.9 0.15 0
0.85 0.2 0
0.9 0.2 0
0.9 0.15 0
0.95 0.15 0
0.9 0.2 0
0.95 0.2 0
0.95 0.15 0
1 0.15 0
0.95 0.2 0
1 0.2 0
1 0.15 0
1.05 0.15 0
1 0.2 0
1.05 0.2 0
1.05 0.15 0
1.1 0.15 0
1.05 0.2 0
1.1 0.2 0
1.1 0.15 0
1.15 0.15 0
1.1 0.2 0
1.15 0.2 0
1.15 0.15 0
1.2 0.15 0
1.15 0.2 0
1.2 0.2 0
1.2 0.15 0
1.25 0.15 0
1.2 0.2 0
1.25 0.2 0
1.25 0.15 0
1.3 0.15 0
1.25 0.2 0
1.3 0.2 0
1.3 0.15 0
1.35 0.15 0
1.3 0.2 0
1.35 0.2 0
1.35 0.15 0
1.4 0.15 0
1.35 0.2 0
1.4 0.2 0
1.4 0.15 0
1.45 0.15 0
1.4 0.2 0
1.45 0.2 0
1.45 0.15 0
1.5 0.15 0
1.45 0.2 0
1.5 0.2 0
1.5 0.15 0
1.55 0.15 0
1.5 0.2 0
1.55 0.2 0
1.55 0.15 0
1.6 0.15 0
1.55 0.2 0
1.6 0.2 0
1.6 0.15 0
1.65 0.15 0
1.6 0.2 0
1.65 0.2 0
1.65 0.15 0
1.7 0.15 0
1.65 0.2 0
1.7 0.2 0
1.7 0.15 0
1.75 0.15 0
1.7 0.2 0
1.75 0.2 0
1.75 0.15 0
1.8 0.15 0
1.75 0.2 0
1.8 0.2 0
1.8 0.15 0
1.85 0.15 0
1.8 0.2 0
1.85 0.2 0
1.85 0.15 0
1.9 0.15 0
1.85 0.2 0
1.9 0.2 0
1.9 0.15 0
1.95 0.15 0
1.9 0.2 0
1.95 0.2 0
1.95 0.15 0
2 0.15 0
1.95 0.2 0
2 0.2 0
0 0.2 0
0.05 0.2 0
0 0.25 0
0.05 0.25 0
0.05 0.2 0
0.1 0.2 0
0.05 0.25 0
0.1 0.25 0
0.1 0.2 0
0.15 0.2 0
0.1 0.25 0
0.15 0.25 0
0.15 0.2 0
0.2 0.2 0
0.15 0.25 0
0.2 0.25 0
0.2 0.2 0
0.25 0.2 0
0.2 0.25 0
0.25 0.25 0
0.25 0.2 0
0.3 0.2 0
0.25 0.25 0
0.3 0.25 0
0.3 0.2 0
0.35 0.2 0
0.3 0.25 0
0.35 0.25 0
0.35 0.2 0
0.4 0.2 0
0.35 0.25 0
0.4 0.25 0
0.4 0.2 0
0.45 0.2 0
0.4 0.25 0
0.45 0.25 0
0.45 0.2 0
0.5 0.2 0
0.45 0.25 0
0.5 0.25 0
0.5 0.2 0
0.55 0.2 0
0.5 0.25 0
0.55 0.25 0
0.55 0.2 0
0.6 0.2 0
0.55 0.25 0
0.6 0.25 0
0.6 0.2 0
0.65 0.2 0
0.6 0.25 0
0.65 0.25 0
0.65 0.2 0
0.7 0.2 0
0.65 0.25 0
0.7 0.25 0
0.7 0.2 0
0.75 0.2 0
0.7 0.25 0
0.75 0.25 0
0.75 0.2 0
0.8 0.2 0
0.75 0.25 0
0.8 0.25 0
0.8 0.2 0
0.85 0.2 0
0.8 0.25 0
0.85 0.25 0
0.85 0.2 0
0.9 0.2 0
0.85 0.25 0
0.9 0.25 0
0.9 0.2 0
0.95 0.2 0
0.9 0.25 0
0.95 0.25 0
0.95 0.2 0
1 0.2 0
0.95 0.25 0
1 0.25 0
1 0.2 0
1.05 0.2 0
1 0.25 0
1.05 0.25 0
1.05 0.2 0
1.1 0.2 0
1.05 0.25 0
1.1 0.25 0
1.1 0.2 0
1.15 0.2 0
1.1 0.25 0
1.15 0.25 0
1.15 0.2 0
1.2 0.2 0
1.15 0.25 0
1.2 0.25 0
1.2 0.2 0
1.25 0.2 0
1.2 0.25 0
1.25 0.25 0
1.25 0.2 0
1.3 0.2 0
1.25 0.25 0
1.3 0.25 0
1.3 0.2 0
1.35 0.2 0
1.3 0.25 0
1.35 0.25 0
1.35 0.2 0
1.4 0.2 0
1.35 0.25 0
1.4 0.25 0
1.4 0.2 0
1.45 0.2 0
1.4 0.25 0
1.45 0.25 0
1.45 0.2 0
1.5 0.2 0
1.45 0.25 0
1.5 0.25 0
1.5 0.2 0
1.55 0.2 0
1.5 0.25 0
1.55 0.25 0
1.55 0.2 0
1.6 0.2 0
1.55 0.25 0
1.6 0.25 0
1.6 0.2 0
1.65 0.2 0
1.6 0.25 0
1.65 0.25 0
1.65 0.2 0
1.7 0.2 0
1.65 0.25 0
1.7 0.25 0
1.7 0.2 0
1.75 0.2 0
1.7 0.25 0
1.75 0.25 0
1.75 0.2 0
1.8 0.2 0
1.75 0.25 0
1.8 0.25 0
1.8 0.2 0
1.85 0.2 0
1.8 0.25 0
1.85 0.25 0
1.85 0.2 0
1.9 0.2 0
1.85 0.25 0
1.9 0.25 0
1.9 0.2 0
1.95 0.2 0
1.9 0.25 0
1.95 0.25 0
1.95 0.2 0
2 0.2 0
1.95 0.25 0
2 0.25 0
0 0.25 0
0.05 0.25 0
0 0.3 0
0.05 0.3 0
0.05 0.25 0
0.1 0.25 0
0.05 0.3 0
0.1 0.3 0
0.1 0.25 0
0.15 0.25 0
0.1 0.3 0
0.15 0.3 0
0.15 0.25 0
0.2 0.25 0
0.15 0.3 0
0.2 0.3 0
0.2 0.25 0
0.25 0.25 0
0.2 0.3 0
0.25 0.3 0
0.25 0.25 0
0.3 0.25 0
0.25 0.3 0
0.3 0.3 0
0.3 0.25 0
0.35 0.25 0
0.3 0.3 0
0.35 0.3 0
0.35 0.25 0
0.4 0.25 0
0.35 0.3 0
0.4 0.3 0
0.4 0.25 0
0.45 0.25 0
0.4 0.3 0
0.45 0.3 0
0.45 0.25 0
0.5 0.25 0
0.45 0.3 0
0.5 0.3 0
0.5 0.25 0
0.55 0.25 0
0.5 0.3 0
0.55 0.3 0
0.55 0.25 0
0.6 0.25 0
0.55 0.3 0
0.6 0.3 0
0.6 0.25 0
0.65 0.25 0
0.6 0.3 0
0.65 0.3 0
0.65 0.25 0
0.7 0.25 0
0.65 0.3 0
0.7 0.3 0
0.7 0.25 0
0.75 0.25 0
0.7 0.3 0
0.75 0.3 0
0.75 0.25 0
0.8 0.25 0
0.75 0.3 0
0.8 0.3 0
0.8 0.25 0
0.85 0.25 0
0.8 0.3 0
0.85 0.3 0
0.85 0.25 0
0.9 0.25 0
0.85 0.3 0
0.9 0.3 0
0.9 0.25 0
0.95 0.25 0
0.9 0.3 0
0.95 0.3 0
0.95 0.25 0
1 0.25 0
0.95 0.3 0
1 0.3 0
1 0.25 0
1.05 0.25 0
1 0.3 0
1.05 0.3 0
1.05 0.25 0
1.1 0.25 0
1.05 0.3 0
1.1 0.3 0
1.1 0.25 0
1.15 0.25 0
1.1 0.3 0
1.15 0.3 0
1.15 0.25 0
1.2 0.25 0
1.15 0.3 0
1.2 0.3 0
1.2 0.25 0
1.25 0.25 0
1.2 0.3 0
1.25 0.3 0
1.25 0.25 0
1.3 0.25 0
1.25 0.3 0
1.3 0.3 0
1.3 0.25 0
1.35 0.25 0
1.3 0.3 0
1.35 0.3 0
1.35 0.25 0
1.4 0.25 0
1.35 0.3 0
1.4 0.3 0
1.4 0.25 0
1.45 0.25 0
1.4 0.3 0
1.45 0.3 0
1.45 0.25 0
1.5 0.25 0
[...]
POINT_DATA 3200
SCALARS x_displacement double 1
LOOKUP_TABLE default
0 -1.69979 0 -0.996357 -1.69979 -2.92808 -0.996357 -2.0309 -2.92808 -3.92442 -2.0309 -2.89251 -3.92442 -4.76036 -2.89251 -3.63243 -4.76036 -5.5036 -3.63243 -4.28782 -5.5036 -6.22833 -4.28782 -4.88539 -6.22833 -6.97263 -4.88539 -5.48644 -6.97263 -7.73256 -5.48644 -6.13623 -7.73256 -8.49965 -6.13623 -6.82095 -8.49965 -9.26764 -6.82095 -7.52647 -9.26764 -10.0306 -7.52647 -8.23939 -10.0306 -10.7812 -8.23939 -8.95439 -10.7812 -11.5164 -8.95439 -9.66964 -11.5164 -12.2375 -9.66964 -10.3836 -12.2375 -12.9471 -10.3836 -11.0943 -12.9471 -13.6487 -11.0943 -11.7992 -13.6487 -14.3457 -11.7992 -12.4961 -14.3457 -15.0424 -12.4961 -13.1826 -15.0424 -15.7438 -13.1826 -13.8558 -15.7438 -16.4557 -13.8558 -14.5119 -16.4557 -17.1827 -14.5119 -15.1456 -17.1827 -17.9238 -15.1456 -15.7493 -17.9238 -18.6661 -15.7493 -16.3139 -18.6661 -19.3725 -16.3139 -16.8321 -19.3725 -19.9726 -16.8321 -17.2959 -19.9726 -20.3962 -17.2959 -17.7028 -20.3962 -20.6584 -17.7028 -18.1059 -20.6584 -20.9592 -18.1059 -18.568 -20.9592 -21.5048 -18.568 -18.8465 -21.5048 -21.4208 -18.8465 -19.1605 -21.4208 -21.5157 -19.1605 -19.5821 -21.5157 -22.4446 -19.5821 -19.3402 -22.4446 -22.8099 -19.3402 -19.6993 -22.8099 -22.9584 -19.6993 -19.9841 -22.9584 -23.0471 -19.9841 -20.1182 -23.0471 -23.0645 -20.1182 -20.2542 -23.0645 -23.0613 -20.2542 -20.3286 -23.0613 -23.0378 -20.3286 -20.3605 -23.0378 -23.0146 -20.3605 -20.3712 -23.0146 -23.0075 -20.3712 -20.374 0 -0.996357 0 -0.864288 -0.996357 -2.0309 -0.864288 -1.49392 -2.0309 -2.89251 -1.49392 -2.10705 -2.89251 -3.63243 -2.10705 -2.70408 -3.63243 -4.28782 -2.70408 -3.21648 -4.28782 -4.88539 -3.21648 -3.62095 -4.88539 -5.48644 -3.62095 -3.95691 -5.48644 -6.13623 -3.95691 -4.44995 -6.13623 -6.82095 -4.44995 -5.10389 -6.82095 -7.52647 -5.10389 -5.77469 -7.52647 -8.23939 -5.77469 -6.44951 -8.23939 -8.95439 -6.44951 -7.1347 -8.95439 -9.66964 -7.1347 -7.83255 -9.66964 -10.3836 -7.83255 -8.544 -10.3836 -11.0943 -8.544 -9.25971 -11.0943 -11.7992 -9.25971 -9.97119 -11.7992 -12.4961 -9.97119 -10.6712 -12.4961 -13.1826 -10.6712 -11.3523 -13.1826 -13.8558 -11.3523 -12.0052 -13.8558 -14.5119 -12.0052 -12.6186 -14.5119 -15.1456 -12.6186 -13.1811 -15.1456 -15.7493 -13.1811 -13.6809 -15.7493 -16.3139 -13.6809 -14.1048 -16.3139 -16.8321 -14.1048 -14.4613 -16.8321 -17.2959 -14.4613 -14.7982 -17.2959 -17.7028 -14.7982 -15.1491 -17.7028 -18.1059 -15.1491 -15.4983 -18.1059 -18.568 -15.4983 -15.8281 -18.568 -18.8465 -15.8281 -16.1558 -18.8465 -19.1605 -16.1558 -16.5559 -19.1605 -19.5821 -16.5559 -16.8388 -19.5821 -19.3402 -16.8388 -17.0949 -19.3402 -19.6993 -17.0949 -17.1491 -19.6993 -19.9841 -17.1491 -16.9712 -19.9841 -20.1182 -16.9712 -17.3717 -20.1182 -20.2542 -17.3717 -17.5647 -20.2542 -20.3286 -17.5647 -17.6698 -20.3286 -20.3605 -17.6698 -17.7408 -20.3605 -20.3712 -17.7408 -17.7603 -20.3712 -20.374 -17.7603 -17.7691 0 -0.864288 0 -0.640854 -0.864288 -1.49392 -0.640854 -0.909633 -1.49392 -2.10705 -0.909633 -1.50223 -2.10705 -2.70408 -1.50223 -1.93433 -2.70408 -3.21648 -1.93433 -2.32646 -3.21648 -3.62095 -2.32646 -2.68423 -3.62095 -3.95691 -2.68423 -3.0076 -3.95691 -4.44995 -3.0076 -3.40935 -4.44995 -5.10389 -3.40935 -3.74191 -5.10389 -5.77469 -3.74191 -4.1687 -5.77469 -6.44951 -4.1687 -4.72169 -6.44951 -7.1347 -4.72169 -5.31483 -7.1347 -7.83255 -5.31483 -6.02296 -7.83255 -8.544 -6.02296 -6.75027 -8.544 -9.25971 -6.75027 -7.49725 -9.25971 -9.97119 -7.49725 -8.25592 -9.97119 -10.6712 -8.25592 -9.00961 -10.6712 -11.3523 -9.00961 -9.74131 -11.3523 -12.0052 -9.74131 -10.4397 -12.0052 -12.6186 -10.4397 -11.0776 -12.6186 -13.1811 -11.0776 -11.6066 -13.1811 -13.6809 -11.6066 -11.973 -13.6809 -14.1048 -11.973 -12.1765 -14.1048 -14.4613 -12.1765 -12.2796 -14.4613 -14.7982 -12.2796 -12.342 -14.7982 -15.1491 -12.342 -12.446 -15.1491 -15.4983 -12.446 -12.7306 -15.4983 -15.8281 -12.7306 -13.114 -15.8281 -16.1558 -13.114 -13.4667 -16.1558 -16.5559 -13.4667 -13.8097 -16.5559 -16.8388 -13.8097 -14.157 -16.8388 -17.0949 -14.157 -14.4257 -17.0949 -17.1491 -14.4257 -14.6828 -17.1491 -16.9712 -14.6828 -14.978 -16.9712 -17.3717 -14.978 -14.8096 -17.3717 -17.5647 -14.8096 -14.9694 -17.5647 -17.6698 -14.9694 -15.142 -17.6698 -17.7408 -15.142 -15.1987 -17.7408 -17.7603 -15.1987 -15.244 -17.7603 -17.7691 -15.244 -15.2492 0 -0.640854 0 -0.0286885 -0.640854 -0.909633 -0.0286885 -0.52671 -0.909633 -1.50223 -0.52671 -0.888006 -1.50223 -1.93433 -0.888006 -1.13635 -1.93433 -2.32646 -1.13635 -1.60221 -2.32646 -2.68423 -1.60221 -1.97313 -2.68423 -3.0076 -1.97313 -2.34629 -3.0076 -3.40935 -2.34629 -2.73044 -3.40935 -3.74191 -2.73044 -3.12962 -3.74191 -4.1687 -3.12962 -3.61601 -4.1687 -4.72169 -3.61601 -4.02189 -4.72169 -5.31483 -4.02189 -4.58077 -5.31483 -6.02296 -4.58077 -5.27989 -6.02296 -6.75027 -5.27989 -5.82036 -6.75027 -7.49725 -5.82036 -6.93119 -7.49725 -8.25592 -6.93119 -7.77258 -8.25592 -9.00961 -7.77258 -8.4238 -9.00961 -9.74131 -8.4238 -8.99949 -9.74131 -10.4397 -8.99949 -9.51649 -10.4397 -11.0776 -9.51649 -9.9298 -11.0776 -11.6066 -9.9298 -10.18 -11.6066 -11.973 -10.18 -10.2755 -11.973 -12.1765 -10.2755 -10.2708 -12.1765 -12.2796 -10.2708 -10.2037 -12.2796 -12.342 -10.2037 -10.098 -12.342 -12.446 -10.098 -9.97227 -12.446 -12.7306 -9.97227 -10.0069 -12.7306 -13.114 -10.0069 -10.3498 -13.114 -13.4667 -10.3498 -10.7625 -13.4667 -13.8097 -10.7625 -11.1207 -13.8097 -14.157 -11.1207 -11.4593 -14.157 -14.4257 -11.4593 -11.8008 -14.4257 -14.6828 -11.8008 -12.1857 -14.6828 -14.978 -12.1857 -12.4322 -14.978 -14.8096 -12.4322 -12.6555 -14.8096 -14.9694 -12.6555 -12.7289 -14.9694 -15.142 -12.7289 -12.4685 -15.142 -15.1987 -12.4685 -12.8392 -15.1987 -15.244 -12.8392 -12.8923 -15.244 -15.2492 -12.8923 -12.8277 0 -0.0286885 0 -0.60043 -0.0286885 -0.52671 -0.60043 -0.586773 -0.52671 -0.888006 -0.586773 -0.0820272 -0.888006 -1.13635 -0.0820272 -0.521987 -1.13635 -1.60221 -0.521987 -0.928107 -1.60221 -1.97313 -0.928107 -1.24349 -1.97313 -2.34629 -1.24349 -1.67459 -2.34629 -2.73044 -1.67459 -2.05807 -2.73044 -3.12962 -2.05807 -2.46201 -3.12962 -3.61601 -2.46201 -2.88161 -3.61601 -4.02189 -2.88161 -3.34238 -4.02189 -4.58077 -3.34238 -3.88634 -4.58077 -5.27989 -3.88634 -4.32418 -5.27989 -5.82036 -4.32418 -4.87608 -5.82036 -6.93119 -4.87608 -5.6051 -6.93119 -7.77258 -5.6051 -6.43828 -7.77258 -8.4238 -6.43828 -7.34896 -8.4238 -8.99949 -7.34896 -7.94655 -8.99949 -9.51649 -7.94655 -8.30166 -9.51649 -9.9298 -8.30166 -8.46048 -9.9298 -10.18 -8.46048 -8.48946 -10.18 -10.2755 -8.48946 -8.44327 -10.2755 -10.2708 -8.44327 -8.34479 -10.2708 -10.2037 -8.34479 -8.19682 -10.2037 -10.098 -8.19682 -7.98856 -10.098 -9.97227 -7.98856 -7.72169 -9.97227 -10.0069 -7.72169 -7.4644 -10.0069 -10.3498 -7.4644 -7.62901 -10.3498 -10.7625 -7.62901 -8.04717 -10.7625 -11.1207 -8.04717 -8.37176 -11.1207 -11.4593 -8.37176 -8.87418 -11.4593 -11.8008 -8.87418 -9.27798 -11.8008 -12.1857 -9.27798 -9.63725 -12.1857 -12.4322 -9.63725 -9.9892 -12.4322 -12.6555 -9.9892 -10.2917 -12.6555 -12.7289 -10.2917 -10.6015 -12.7289 -12.4685 -10.6015 -10.9387 -12.4685 -12.8392 -10.9387 -10.5532 -12.8392 -12.8923 -10.5532 -10.6948 -12.8923 -12.8277 -10.6948 -10.8213 0 -0.60043 0 -0.088604 -0.60043 -0.586773 -0.088604 -0.18974 -0.586773 -0.0820272 -0.18974 -0.380703 -0.0820272 -0.521987 -0.380703 -0.446641 -0.521987 -0.928107 -0.446641 -0.240958 -0.928107 -1.24349 -0.240958 -0.639888 -1.24349 -1.67459 -0.639888 -0.974304 -1.67459 -2.05807 -0.974304 -1.33914 -2.05807 -2.46201 -1.33914 -1.76564 -2.46201 -2.88161 -1.76564 -2.15285 -2.88161 -3.34238 -2.15285 -2.56195 -3.34238 -3.88634 -2.56195 -2.9762 -3.88634 -4.32418 -2.9762 -3.41537 -4.32418 -4.87608 -3.41537 -3.9372 -4.87608 -5.6051 -3.9372 -4.38598 -5.6051 -6.43828 -4.38598 -4.91233 -6.43828 -7.34896 -4.91233 -5.61813 -7.34896 -7.94655 -5.61813 -6.39779 -7.94655 -8.30166 -6.39779 -6.71359 -8.30166 -8.46048 -6.71359 -6.72161 -8.46048 -8.48946 -6.72161 -6.66204 -8.48946 -8.44327 -6.66204 -6.56672 -8.44327 -8.34479 -6.56672 -6.43055 -8.34479 -8.19682 -6.43055 -6.23942 -8.19682 -7.98856 -6.23942 -5.97135 -7.98856 -7.72169 -5.97135 -5.61197 -7.72169 -7.4644 -5.61197 -5.30854 -7.4644 -7.62901 -5.30854 -5.19583 -7.62901 -8.04717 -5.19583 -5.26122 -8.04717 -8.37176 -5.26122 -5.78833 -8.37176 -8.87418 -5.78833 -6.37674 -8.87418 -9.27798 -6.37674 -6.78204 -9.27798 -9.63725 -6.78204 -7.20212 -9.63725 -9.9892 -7.20212 -7.58135 -9.9892 -10.2917 -7.58135 -7.95801 -10.2917 -10.6015 -7.95801 -8.38497 -10.6015 -10.9387 -8.38497 -8.64191 -10.9387 -10.5532 -8.64191 -8.99454 -10.5532 -10.6948 -8.99454 -9.50268 -10.6948 -10.8213 -9.50268 -8.98923 0 -0.088604 0 -0.0690961 -0.088604 -0.18974 -0.0690961 -0.155506 -0.18974 -0.380703 -0.155506 -0.194942 -0.380703 -0.446641 -0.194942 -0.261568 -0.446641 -0.240958 -0.261568 -0.480489 -0.240958 -0.639888 -0.480489 -0.164625 -0.639888 -0.974304 -0.164625 -0.298628 -0.974304 -1.33914 -0.298628 -0.706958 -1.33914 -1.76564 -0.706958 -1.00671 -1.76564 -2.15285 -1.00671 -1.35166 -2.15285 -2.56195 -1.35166 -1.73879 -2.56195 -2.9762 -1.73879 -2.09233 -2.9762 -3.41537 -2.09233 -2.46767 -3.41537 -3.9372 -2.46767 -2.84881 -3.9372 -4.38598 -2.84881 -3.23589 -4.38598 -4.91233 -3.23589 -3.69185 -4.91233 -5.61813 -3.69185 -4.13811 -5.61813 -6.39779 -4.13811 -4.66748 -6.39779 -6.71359 -4.66748 -4.95282 -6.71359 -6.72161 -4.95282 -4.91277 -6.72161 -6.66204 -4.91277 -4.82803 -6.66204 -6.56672 -4.82803 -4.7184 -6.56672 -6.43055 -4.7184 -4.57109 -6.43055 -6.23942 -4.57109 -4.36773 -6.23942 -5.97135 -4.36773 -4.09437 -5.97135 -5.61197 -4.09437 -3.77772 -5.61197 -5.30854 -3.77772 -3.47493 -5.30854 -5.19583 -3.47493 -3.24099 -5.19583 -5.26122 -3.24099 -3.16205 -5.26122 -5.78833 -3.16205 -3.22879 -5.78833 -6.37674 -3.22879 -3.86292 -6.37674 -6.78204 -3.86292 -4.33917 -6.78204 -7.20212 -4.33917 -4.74482 -7.20212 -7.58135 -4.74482 -5.30805 -7.58135 -7.95801 -5.30805 -5.71756 -7.95801 -8.38497 -5.71756 -6.07367 -8.38497 -8.64191 -6.07367 -6.44069 -8.64191 -8.99454 -6.44069 -6.89888 -8.99454 -9.50268 -6.89888 -7.2696 -9.50268 -8.98923 -7.2696 -7.7214 0 -0.0690961 0 -0.0503054 -0.0690961 -0.155506 -0.0503054 -0.0794766 -0.155506 -0.194942 -0.0794766 -0.0980959 -0.194942 -0.261568 -0.0980959 -0.101988 -0.261568 -0.480489 -0.101988 -0.0582266 -0.480489 -0.164625 -0.0582266 0.0348674 -0.164625 -0.298628 0.0348674 -0.504596 -0.298628 -0.706958 -0.504596 -0.0923366 -0.706958 -1.00671 -0.0923366 -0.253934 -1.00671 -1.35166 -0.253934 -0.606438 -1.35166 -1.73879 -0.606438 -0.876885 -1.73879 -2.09233 -0.876885 -1.16982 -2.09233 -2.46767 -1.16982 -1.49129 -2.46767 -2.84881 -1.49129 -1.7946 -2.84881 -3.23589 -1.7946 -2.10881 -3.23589 -3.69185 -2.10881 -2.42471 -3.69185 -4.13811 -2.42471 -2.73361 -4.13811 -4.66748 -2.73361 -3.04079 -4.66748 -4.95282 -3.04079 -3.17872 -4.95282 -4.91277 -3.17872 -3.13659 -4.91277 -4.82803 -3.13659 -3.05442 -4.82803 -4.7184 -3.05442 -2.95294 -4.7184 -4.57109 -2.95294 -2.82711 -4.57109 -4.36773 -2.82711 -2.68254 -4.36773 -4.09437 -2.68254 -2.51592 -4.09437 -3.77772 -2.51592 -2.2822 -3.77772 -3.47493 -2.2822 -1.98276 -3.47493 -3.24099 -1.98276 -1.67084 -3.24099 -3.16205 -1.67084 -1.40517 -3.16205 -3.22879 -1.40517 -1.1957 -3.22879 -3.86292 -1.1957 -1.16749 -3.86292 -4.33917 -1.16749 -1.78995 -4.33917 -4.74482 -1.78995 -2.56611 -4.74482 -5.30805 -2.56611 -3.15347 -5.30805 -5.71756 -3.15347 -3.49022 -5.71756 -6.07367 -3.49022 -3.87359 -6.07367 -6.44069 -3.87359 -4.22969 -6.44069 -6.89888 -4.22969 -4.59844 -6.89888 -7.2696 -4.59844 -4.98618 -7.2696 -7.7214 -4.98618 -5.22706 0 -0.0503054 0 -0.0219483 -0.0503054 -0.0794766 -0.0219483 -0.0333795 -0.0794766 -0.0980959 -0.0333795 -0.0332181 -0.0980959 -0.101988 -0.0332181 -0.0224189 -0.101988 -0.0582266 -0.0224189 -0.0225918 -0.0582266 0.0348674 -0.0225918 -0.0342141 0.0348674 -0.504596 -0.0342141 0.138324 -0.504596 -0.0923366 0.138324 0.425595 -0.0923366 -0.253934 0.425595 -0.0711816 -0.253934 -0.606438 -0.0711816 0.13069 -0.606438 -0.876885 0.13069 -0.0989466 -0.876885 -1.16982 -0.0989466 -0.367758 -1.16982 -1.49129 -0.367758 -0.570785 -1.49129 -1.7946 -0.570785 -0.773363 -1.7946 -2.10881 -0.773363 -0.987989 -2.10881 -2.42471 -0.987989 -1.18481 -2.42471 -2.73361 -1.18481 -1.34845 -2.73361 -3.04079 -1.34845 -1.46227 -3.04079 -3.17872 -1.46227 -1.50089 -3.17872 -3.13659 -1.50089 -1.47361 -3.13659 -3.05442 -1.47361 -1.41469 -3.05442 -2.95294 -1.41469 -1.35003 -2.95294 -2.82711 -1.35003 -1.30142 -2.82711 -2.68254 -1.30142 -1.27511 -2.68254 -2.51592 -1.27511 -1.21174 -2.51592 -2.2822 -1.21174 -1.06881 -2.2822 -1.98276 -1.06881 -0.840674 -1.98276 -1.67084 -0.840674 -0.550831 -1.67084 -1.40517 -0.550831 -0.245293 -1.40517 -1.1957 -0.245293 0.0579186 -1.1957 -1.16749 0.0579186 0.446095 -1.16749 -1.78995 0.446095 0.692916 -1.78995 -2.56611 0.692916 -1.25942 -2.56611 -3.15347 -1.25942 -1.0599 -3.15347 -3.49022 -1.0599 -1.38633 -3.49022 -3.87359 -1.38633 -1.69672 -3.87359 -4.22969 -1.69672 -2.04862 -4.22969 -4.59844 -2.04862 -2.31644 -4.59844 -4.98618 -2.31644 -2.59455 -4.98618 -5.22706 -2.59455 -2.63573 0 -0.0219483 0 -9.33824e-11 -0.0219483 -0.0333795 -9.33824e-11 -1.07291e-10 -0.0333795 -0.0332181 -1.07291e-10 1.02722e-11 -0.0332181 -0.0224189 1.02722e-11 9.26431e-13 -0.0224189 -0.0225918 9.26431e-13 5.87811e-11 -0.0225918 -0.0342141 5.87811e-11 3.68468e-11 -0.0342141 0.138324 3.68468e-11 -3.70102e-11 0.138324 0.425595 -3.70102e-11 1.97501e-10 0.425595 -0.0711816 1.97501e-10 -1.30086e-10 -0.0711816 0.13069 -1.30086e-10 4.41463e-12 0.13069 -0.0989466 4.41463e-12 -1.11663e-12 -0.0989466 -0.367758 -1.11663e-12 1.51357e-12 -0.367758 -0.570785 1.51357e-12 3.54913e-12 -0.570785 -0.773363 3.54913e-12 5.0189e-12 -0.773363 -0.987989 5.0189e-12 6.07625e-12 -0.987989 -1.18481 6.07625e-12 7.13208e-12 -1.18481 -1.34845 7.13208e-12 7.9553e-12 -1.34845 -1.46227 7.9553e-12 8.32956e-12 -1.46227 -1.50089 8.32956e-12 8.32287e-12 -1.50089 -1.47361 8.32287e-12 7.67793e-12 -1.47361 -1.41469 7.67793e-12 7.14814e-12 -1.41469 -1.35003 7.14814e-12 6.44423e-12 -1.35003 -1.30142 6.44423e-12 6.79581e-12 -1.30142 -1.27511 6.79581e-12 9.79733e-12 -1.27511 -1.21174 9.79733e-12 1.29977e-11 -1.21174 -1.06881 1.29977e-11 1.96845e-11 -1.06881 -0.840674 1.96845e-11 3.05118e-11 -0.840674 -0.550831 3.05118e-11 4.19936e-11 -0.550831 -0.245293 4.19936e-11 4.36673e-11 -0.245293 0.0579186 4.36673e-11 4.15114e-11 0.0579186 0.446095 4.15114e-11 1.09193e-10 0.446095 0.692916 1.09193e-10 1.38882e-10 0.692916 -1.25942 1.38882e-10 -7.966e-10 -1.25942 -1.0599 -7.966e-10 3.79131e-11 -1.0599 -1.38633 3.79131e-11 1.82361e-11 -1.38633 -1.69672 1.82361e-11 2.424e-12 -1.69672 -2.04862 2.424e-12 -7.51283e-13 -2.04862 -2.31644 -7.51283e-13 -1.69758e-12 -2.31644 -2.59455 -1.69758e-12 -2.74602e-12 -2.59455 -2.63573 -2.74602e-12 -3.85842e-12 0 -9.33824e-11 0 0.0219483 -9.33824e-11 -1.07291e-10 0.0219483 0.0333795 -1.07291e-10 1.02722e-11 0.0333795 0.0332181 1.02722e-11 9.26431e-13 0.0332181 0.0224189 9.26431e-13 5.87811e-11 0.0224189 0.0225918 5.87811e-11 3.68468e-11 0.0225918 0.0342141 3.68468e-11 -3.70102e-11 0.0342141 -0.138324 -3.70102e-11 1.97501e-10 -0.138324 -0.425595 1.97501e-10 -1.30086e-10 -0.425595 0.0711816 -1.30086e-10 4.41463e-12 0.0711816 -0.13069 4.41463e-12 -1.11663e-12 -0.13069 0.0989466 -1.11663e-12 1.51357e-12 0.0989466 0.367758 1.51357e-12 3.54913e-12 0.367758 0.570785 3.54913e-12 5.0189e-12 0.570785 0.773363 5.0189e-12 6.07625e-12 0.773363 0.987989 6.07625e-12 7.13208e-12 0.987989 1.18481 7.13208e-12 7.9553e-12 1.18481 1.34845 7.9553e-12 8.32956e-12 1.34845 1.46227 8.32956e-12 8.32287e-12 1.46227 1.50089 8.32287e-12 7.67793e-12 1.50089 1.47361 7.67793e-12 7.14814e-12 1.47361 1.41469 7.14814e-12 6.44423e-12 1.41469 1.35003 6.44423e-12 6.79581e-12 1.35003 1.30142 6.79581e-12 9.79733e-12 1.30142 1.27511 9.79733e-12 1.29977e-11 1.27511 1.21174 1.29977e-11 1.96845e-11 1.21174 1.06881 1.96845e-11 3.05118e-11 1.06881 0.840674 3.05118e-11 4.19936e-11 0.840674 0.550831 4.19936e-11 4.36673e-11 0.550831 0.245293 4.36673e-11 4.15114e-11 0.245293 -0.0579186 4.15114e-11 1.09193e-10 -0.0579186 -0.446095 1.09193e-10 1.38882e-10 -0.446095 -0.692916 1.38882e-10 -7.966e-10 -0.692916 1.25942 -7.966e-10 3.79131e-11 1.25942 1.0599 3.79131e-11 1.82361e-11 1.0599 1.38633 1.82361e-11 2.424e-12 1.38633 1.69672 2.424e-12 -7.51283e-13 1.69672 2.04862 -7.51283e-13 -1.69758e-12 2.04862 2.31644 -1.69758e-12 -2.74602e-12 2.31644 2.59455 -2.74602e-12 -3.85842e-12 2.59455 2.63573 0 0.0219483 0 0.0503054 0.0219483 0.0333795 0.0503054 0.0794766 0.0333795 0.0332181 0.0794766 0.0980959 0.0332181 0.0224189 0.0980959 0.101988 0.0224189 0.0225918 0.101988 0.0582266 0.0225918 0.0342141 0.0582266 -0.0348674 0.0342141 -0.138324 -0.0348674 0.504596 -0.138324 -0.425595 0.504596 0.0923366 -0.425595 0.0711816 0.0923366 0.253934 0.0711816 -0.13069 0.253934 0.606438 -0.13069 0.0989466 0.606438 0.876885 0.0989466 0.367758 0.876885 1.16982 0.367758 0.570785 1.16982 1.49129 0.570785 0.773363 1.49129 1.7946 0.773363 0.987989 1.7946 2.10881 0.987989 1.18481 2.10881 2.42471 1.18481 1.34845 2.42471 2.73361 1.34845 1.46227 2.73361 3.04079 1.46227 1.50089 3.04079 3.17872 1.50089 1.47361 3.17872 3.13659 1.47361 1.41469 3.13659 3.05442 1.41469 1.35003 3.05442 2.95294 1.35003 1.30142 2.95294 2.82711 1.30142 1.27511 2.82711 2.68254 1.27511 1.21174 2.68254 2.51592 1.21174 1.06881 2.51592 2.2822 1.06881 0.840674 2.2822 1.98276 0.840674 0.550831 1.98276 1.67084 0.550831 0.245293 1.67084 1.40517 0.245293 -0.0579186 1.40517 1.1957 -0.0579186 -0.446095 1.1957 1.16749 -0.446095 -0.692916 1.16749 1.78995 -0.692916 1.25942 1.78995 2.56611 1.25942 1.0599 2.56611 3.15347 1.0599 1.38633 3.15347 3.49022 1.38633 1.69672 3.49022 3.87359 1.69672 2.04862 3.87359 4.22969 2.04862 2.31644 4.22969 4.59844 2.31644 2.59455 4.59844 4.98618 2.59455 2.63573 4.98618 5.22706 0 0.0503054 0 0.0690961 0.0503054 0.0794766 0.0690961 0.155506 0.0794766 0.0980959 0.155506 0.194942 0.0980959 0.101988 0.194942 0.261568 0.101988 0.0582266 0.261568 0.480489 0.0582266 -0.0348674 0.480489 0.164625 -0.0348674 0.504596 0.164625 0.298628 0.504596 0.0923366 0.298628 0.706958 0.0923366 0.253934 0.706958 1.00671 0.253934 0.606438 1.00671 1.35166 0.606438 0.876885 1.35166 1.73879 0.876885 1.16982 1.73879 2.09233 1.16982 1.49129 2.09233 2.46767 1.49129 1.7946 2.46767 2.84881 1.7946 2.10881 2.84881 3.23589 2.10881 2.42471 3.23589 3.69185 2.42471 2.73361 3.69185 4.13811 2.73361 3.04079 4.13811 4.66748 3.04079 3.17872 4.66748 4.95282 3.17872 3.13659 4.95282 4.91277 3.13659 3.05442 4.91277 4.82803 3.05442 2.95294 4.82803 4.7184 2.95294 2.82711 4.7184 4.57109 2.82711 2.68254 4.57109 4.36773 2.68254 2.51592 4.36773 4.09437 2.51592 2.2822 4.09437 3.77772 2.2822 1.98276 3.77772 3.47493 1.98276 1.67084 3.47493 3.24099 1.67084 1.40517 3.24099 3.16205 1.40517 1.1957 3.16205 3.22879 1.1957 1.16749 3.22879 3.86292 1.16749 1.78995 3.86292 4.33917 1.78995 2.56611 4.33917 4.74482 2.56611 3.15347 4.74482 5.30805 3.15347 3.49022 5.30805 5.71756 3.49022 3.87359 5.71756 6.07367 3.87359 4.22969 6.07367 6.44069 4.22969 4.59844 6.44069 6.89888 4.59844 4.98618 6.89888 7.2696 4.98618 5.22706 7.2696 7.7214 0 0.0690961 0 0.088604 0.0690961 0.155506 0.088604 0.18974 0.155506 0.194942 0.18974 0.380703 0.194942 0.261568 0.380703 0.446641 0.261568 0.480489 0.446641 0.240958 0.480489 0.164625 0.240958 0.639888 0.164625 0.298628 0.639888 0.974304 0.298628 0.706958 0.974304 1.33914 0.706958 1.00671 1.33914 1.76564 1.00671 1.35166 1.76564 2.15285 1.35166 1.73879 2.15285 2.56195 1.73879 2.09233 2.56195 2.9762 2.09233 2.46767 2.9762 3.41537 2.46767 2.84881 3.41537 3.9372 2.84881 3.23589 3.9372 4.38598 3.23589 3.69185 4.38598 4.91233 3.69185 4.13811 4.91233 5.61813 4.13811 4.66748 5.61813 6.39779 4.66748 4.95282 6.39779 6.71359 4.95282 4.91277 6.71359 6.72161 4.91277 4.82803 6.72161 6.66204 4.82803 4.7184 6.66204 6.56672 4.7184 4.57109 6.56672 6.43055 4.57109 4.36773 6.43055 6.23942 4.36773 4.09437 6.23942 5.97135 4.09437 3.77772 5.97135 5.61197 3.77772 3.47493 5.61197 5.30854 3.47493 3.24099 5.30854 5.19583 3.24099 3.16205 5.19583 5.26122 3.16205 3.22879 5