# vtk DataFile Version 3.0
#This file was generated by the deal.II library on 2015/9/1 at 17:13: 0
ASCII
DATASET UNSTRUCTURED_GRID

POINTS 11912 double
0 0 0
0.05 0 0
0 0.05 0
0.05 0.05 0
0.05 0 0
0.1 0 0
0.05 0.05 0
0.1 0.05 0
0.1 0 0
0.15 0 0
0.1 0.05 0
0.15 0.05 0
0.15 0 0
0.2 0 0
0.15 0.05 0
0.2 0.05 0
0.2 0 0
0.25 0 0
0.2 0.05 0
0.25 0.05 0
0.25 0 0
0.3 0 0
0.25 0.05 0
0.3 0.05 0
0.3 0 0
0.35 0 0
0.3 0.05 0
0.35 0.05 0
0.35 0 0
0.4 0 0
0.35 0.05 0
0.4 0.05 0
0.4 0 0
0.45 0 0
0.4 0.05 0
0.45 0.05 0
0.45 0 0
0.5 0 0
0.45 0.05 0
0.5 0.05 0
0.5 0 0
0.55 0 0
0.5 0.05 0
0.55 0.05 0
0.55 0 0
0.6 0 0
0.55 0.05 0
0.6 0.05 0
0.6 0 0
0.65 0 0
0.6 0.05 0
0.65 0.05 0
0.65 0 0
0.7 0 0
0.65 0.05 0
0.7 0.05 0
0.7 0 0
0.75 0 0
0.7 0.05 0
0.75 0.05 0
0.75 0 0
0.8 0 0
0.75 0.05 0
0.8 0.05 0
0.8 0 0
0.85 0 0
0.8 0.05 0
0.85 0.05 0
0.85 0 0
0.9 0 0
0.85 0.05 0
0.9 0.05 0
0.9 0 0
0.95 0 0
0.9 0.05 0
0.95 0.05 0
0.95 0 0
1 0 0
0.95 0.05 0
1 0.05 0
1 0 0
1.05 0 0
1 0.05 0
1.05 0.05 0
1.05 0 0
1.1 0 0
1.05 0.05 0
1.1 0.05 0
1.1 0 0
1.15 0 0
1.1 0.05 0
1.15 0.05 0
1.15 0 0
1.2 0 0
1.15 0.05 0
1.2 0.05 0
1.2 0 0
1.25 0 0
1.2 0.05 0
1.25 0.05 0
1.25 0 0
1.3 0 0
1.25 0.05 0
1.3 0.05 0
0.1 0.05 0
0.15 0.05 0
0.1 0.1 0
0.15 0.1 0
0.15 0.05 0
0.2 0.05 0
0.15 0.1 0
0.2 0.1 0
0.2 0.05 0
0.25 0.05 0
0.2 0.1 0
0.25 0.1 0
0.25 0.05 0
0.3 0.05 0
0.25 0.1 0
0.3 0.1 0
0.2 0.1 0
0.25 0.1 0
0.2 0.15 0
0.25 0.15 0
0.25 0.1 0
0.3 0.1 0
0.25 0.15 0
0.3 0.15 0
0.85 0.45 0
0.9 0.45 0
0.85 0.5 0
0.9 0.5 0
0.9 0.45 0
0.95 0.45 0
0.9 0.5 0
0.95 0.5 0
1.45 0.45 0
1.5 0.45 0
1.45 0.5 0
1.5 0.5 0
1.9 0.45 0
1.95 0.45 0
1.9 0.5 0
1.95 0.5 0
1.95 0.45 0
2 0.45 0
1.95 0.5 0
2 0.5 0
0.65 0.5 0
0.7 0.5 0
0.65 0.55 0
0.7 0.55 0
0.85 0.5 0
0.9 0.5 0
0.85 0.55 0
0.9 0.55 0
0.9 0.5 0
0.95 0.5 0
0.9 0.55 0
0.95 0.55 0
1.9 0.5 0
1.95 0.5 0
1.9 0.55 0
1.95 0.55 0
1.95 0.5 0
2 0.5 0
1.95 0.55 0
2 0.55 0
0.2 0.85 0
0.25 0.85 0
0.2 0.9 0
0.25 0.9 0
0.25 0.85 0
0.3 0.85 0
0.25 0.9 0
0.3 0.9 0
0.1 0.9 0
0.15 0.9 0
0.1 0.95 0
0.15 0.95 0
0.15 0.9 0
0.2 0.9 0
0.15 0.95 0
0.2 0.95 0
0.2 0.9 0
0.25 0.9 0
0.2 0.95 0
0.25 0.95 0
0.25 0.9 0
0.3 0.9 0
0.25 0.95 0
0.3 0.95 0
0 0.95 0
0.05 0.95 0
0 1 0
0.05 1 0
0.05 0.95 0
0.1 0.95 0
0.05 1 0
0.1 1 0
0.1 0.95 0
0.15 0.95 0
0.1 1 0
0.15 1 0
0.15 0.95 0
0.2 0.95 0
0.15 1 0
0.2 1 0
0.2 0.95 0
0.25 0.95 0
0.2 1 0
0.25 1 0
0.25 0.95 0
0.3 0.95 0
0.25 1 0
0.3 1 0
0.3 0.95 0
0.35 0.95 0
0.3 1 0
0.35 1 0
0.35 0.95 0
0.4 0.95 0
0.35 1 0
0.4 1 0
0.4 0.95 0
0.45 0.95 0
0.4 1 0
0.45 1 0
0.45 0.95 0
0.5 0.95 0
0.45 1 0
0.5 1 0
0.5 0.95 0
0.55 0.95 0
0.5 1 0
0.55 1 0
0.55 0.95 0
0.6 0.95 0
0.55 1 0
0.6 1 0
0.6 0.95 0
0.65 0.95 0
0.6 1 0
0.65 1 0
0.65 0.95 0
0.7 0.95 0
0.65 1 0
0.7 1 0
0.7 0.95 0
0.75 0.95 0
0.7 1 0
0.75 1 0
0.75 0.95 0
0.8 0.95 0
0.75 1 0
0.8 1 0
0.8 0.95 0
0.85 0.95 0
0.8 1 0
0.85 1 0
0.85 0.95 0
0.9 0.95 0
0.85 1 0
0.9 1 0
0.9 0.95 0
0.95 0.95 0
0.9 1 0
0.95 1 0
0.95 0.95 0
1 0.95 0
0.95 1 0
1 1 0
1 0.95 0
1.05 0.95 0
1 1 0
1.05 1 0
1.05 0.95 0
1.1 0.95 0
1.05 1 0
1.1 1 0
1.1 0.95 0
1.15 0.95 0
1.1 1 0
1.15 1 0
1.15 0.95 0
1.2 0.95 0
1.15 1 0
1.2 1 0
1.2 0.95 0
1.25 0.95 0
1.2 1 0
1.25 1 0
1.25 0.95 0
1.3 0.95 0
1.25 1 0
1.3 1 0
1.3 0 0
1.325 0 0
1.3 0.025 0
1.325 0.025 0
1.325 0 0
1.35 0 0
1.325 0.025 0
1.35 0.025 0
1.3 0.025 0
1.325 0.025 0
1.3 0.05 0
1.325 0.05 0
1.325 0.025 0
1.35 0.025 0
1.325 0.05 0
1.35 0.05 0
1.35 0 0
1.375 0 0
1.35 0.025 0
1.375 0.025 0
1.375 0 0
1.4 0 0
1.375 0.025 0
1.4 0.025 0
1.35 0.025 0
1.375 0.025 0
1.35 0.05 0
1.375 0.05 0
1.375 0.025 0
1.4 0.025 0
1.375 0.05 0
1.4 0.05 0
1.4 0 0
1.425 0 0
1.4 0.025 0
1.425 0.025 0
1.425 0 0
1.45 0 0
1.425 0.025 0
1.45 0.025 0
1.4 0.025 0
1.425 0.025 0
1.4 0.05 0
1.425 0.05 0
1.425 0.025 0
1.45 0.025 0
1.425 0.05 0
1.45 0.05 0
1.45 0 0
1.475 0 0
1.45 0.025 0
1.475 0.025 0
1.475 0 0
1.5 0 0
1.475 0.025 0
1.5 0.025 0
1.45 0.025 0
1.475 0.025 0
1.45 0.05 0
1.475 0.05 0
1.475 0.025 0
1.5 0.025 0
1.475 0.05 0
1.5 0.05 0
1.5 0 0
1.525 0 0
1.5 0.025 0
1.525 0.025 0
1.525 0 0
1.55 0 0
1.525 0.025 0
1.55 0.025 0
1.5 0.025 0
1.525 0.025 0
1.5 0.05 0
1.525 0.05 0
1.525 0.025 0
1.55 0.025 0
1.525 0.05 0
1.55 0.05 0
1.55 0 0
1.575 0 0
1.55 0.025 0
1.575 0.025 0
1.575 0 0
1.6 0 0
1.575 0.025 0
1.6 0.025 0
1.55 0.025 0
1.575 0.025 0
1.55 0.05 0
1.575 0.05 0
1.575 0.025 0
1.6 0.025 0
1.575 0.05 0
1.6 0.05 0
1.6 0 0
1.625 0 0
1.6 0.025 0
1.625 0.025 0
1.625 0 0
1.65 0 0
1.625 0.025 0
1.65 0.025 0
1.6 0.025 0
1.625 0.025 0
1.6 0.05 0
1.625 0.05 0
1.625 0.025 0
1.65 0.025 0
1.625 0.05 0
1.65 0.05 0
1.65 0 0
1.675 0 0
1.65 0.025 0
1.675 0.025 0
1.675 0 0
1.7 0 0
1.675 0.025 0
1.7 0.025 0
1.65 0.025 0
1.675 0.025 0
1.65 0.05 0
1.675 0.05 0
1.675 0.025 0
1.7 0.025 0
1.675 0.05 0
1.7 0.05 0
1.7 0 0
1.725 0 0
1.7 0.025 0
1.725 0.025 0
1.725 0 0
1.75 0 0
1.725 0.025 0
1.75 0.025 0
1.7 0.025 0
1.725 0.025 0
1.7 0.05 0
1.725 0.05 0
1.725 0.025 0
1.75 0.025 0
1.725 0.05 0
1.75 0.05 0
1.75 0 0
1.775 0 0
1.75 0.025 0
1.775 0.025 0
1.775 0 0
1.8 0 0
1.775 0.025 0
1.8 0.025 0
1.75 0.025 0
1.775 0.025 0
1.75 0.05 0
1.775 0.05 0
1.775 0.025 0
1.8 0.025 0
1.775 0.05 0
1.8 0.05 0
1.8 0 0
1.825 0 0
1.8 0.025 0
1.825 0.025 0
1.825 0 0
1.85 0 0
1.825 0.025 0
1.85 0.025 0
1.8 0.025 0
1.825 0.025 0
1.8 0.05 0
1.825 0.05 0
1.825 0.025 0
1.85 0.025 0
1.825 0.05 0
1.85 0.05 0
1.85 0 0
1.875 0 0
1.85 0.025 0
1.875 0.025 0
1.875 0 0
1.9 0 0
1.875 0.025 0
1.9 0.025 0
1.85 0.025 0
1.875 0.025 0
1.85 0.05 0
1.875 0.05 0
1.875 0.025 0
1.9 0.025 0
1.875 0.05 0
1.9 0.05 0
1.9 0 0
1.925 0 0
1.9 0.025 0
1.925 0.025 0
1.925 0 0
1.95 0 0
1.925 0.025 0
1.95 0.025 0
1.9 0.025 0
1.925 0.025 0
1.9 0.05 0
1.925 0.05 0
1.925 0.025 0
1.95 0.025 0
1.925 0.05 0
1.95 0.05 0
1.95 0 0
1.975 0 0
1.95 0.025 0
1.975 0.025 0
1.975 0 0
2 0 0
1.975 0.025 0
2 0.025 0
1.95 0.025 0
1.975 0.025 0
1.95 0.05 0
1.975 0.05 0
1.975 0.025 0
2 0.025 0
1.975 0.05 0
2 0.05 0
0 0.05 0
0.025 0.05 0
0 0.075 0
0.025 0.075 0
0.025 0.05 0
0.05 0.05 0
0.025 0.075 0
0.05 0.075 0
0 0.075 0
0.025 0.075 0
0 0.1 0
0.025 0.1 0
0.025 0.075 0
0.05 0.075 0
0.025 0.1 0
0.05 0.1 0
0.05 0.05 0
0.075 0.05 0
0.05 0.075 0
0.075 0.075 0
0.075 0.05 0
0.1 0.05 0
0.075 0.075 0
0.1 0.075 0
0.05 0.075 0
0.075 0.075 0
0.05 0.1 0
0.075 0.1 0
0.075 0.075 0
0.1 0.075 0
0.075 0.1 0
0.1 0.1 0
0.3 0.05 0
0.325 0.05 0
0.3 0.075 0
0.325 0.075 0
0.325 0.05 0
0.35 0.05 0
0.325 0.075 0
0.35 0.075 0
0.3 0.075 0
0.325 0.075 0
0.3 0.1 0
0.325 0.1 0
0.325 0.075 0
0.35 0.075 0
0.325 0.1 0
0.35 0.1 0
0.35 0.05 0
0.375 0.05 0
0.35 0.075 0
0.375 0.075 0
0.375 0.05 0
0.4 0.05 0
0.375 0.075 0
0.4 0.075 0
0.35 0.075 0
0.375 0.075 0
0.35 0.1 0
0.375 0.1 0
0.375 0.075 0
0.4 0.075 0
0.375 0.1 0
0.4 0.1 0
0.4 0.05 0
0.425 0.05 0
0.4 0.075 0
0.425 0.075 0
0.425 0.05 0
0.45 0.05 0
0.425 0.075 0
0.45 0.075 0
0.4 0.075 0
0.425 0.075 0
0.4 0.1 0
0.425 0.1 0
0.425 0.075 0
0.45 0.075 0
0.425 0.1 0
0.45 0.1 0
0.45 0.05 0
0.475 0.05 0
0.45 0.075 0
0.475 0.075 0
0.475 0.05 0
0.5 0.05 0
0.475 0.075 0
0.5 0.075 0
0.45 0.075 0
0.475 0.075 0
0.45 0.1 0
0.475 0.1 0
0.475 0.075 0
0.5 0.075 0
0.475 0.1 0
0.5 0.1 0
0.5 0.05 0
0.525 0.05 0
0.5 0.075 0
0.525 0.075 0
0.525 0.05 0
0.55 0.05 0
0.525 0.075 0
0.55 0.075 0
0.5 0.075 0
0.525 0.075 0
0.5 0.1 0
0.525 0.1 0
0.525 0.075 0
0.55 0.075 0
0.525 0.1 0
0.55 0.1 0
0.55 0.05 0
0.575 0.05 0
0.55 0.075 0
0.575 0.075 0
0.575 0.05 0
0.6 0.05 0
0.575 0.075 0
0.6 0.075 0
0.55 0.075 0
0.575 0.075 0
0.55 0.1 0
0.575 0.1 0
0.575 0.075 0
0.6 0.075 0
0.575 0.1 0
0.6 0.1 0
0.6 0.05 0
0.625 0.05 0
0.6 0.075 0
0.625 0.075 0
0.625 0.05 0
0.65 0.05 0
0.625 0.075 0
0.65 0.075 0
0.6 0.075 0
0.625 0.075 0
0.6 0.1 0
0.625 0.1 0
0.625 0.075 0
0.65 0.075 0
0.625 0.1 0
0.65 0.1 0
0.65 0.05 0
0.675 0.05 0
0.65 0.075 0
0.675 0.075 0
0.675 0.05 0
0.7 0.05 0
0.675 0.075 0
0.7 0.075 0
0.65 0.075 0
0.675 0.075 0
0.65 0.1 0
0.675 0.1 0
0.675 0.075 0
0.7 0.075 0
0.675 0.1 0
0.7 0.1 0
0.7 0.05 0
0.725 0.05 0
0.7 0.075 0
0.725 0.075 0
0.725 0.05 0
0.75 0.05 0
0.725 0.075 0
0.75 0.075 0
0.7 0.075 0
0.725 0.075 0
0.7 0.1 0
0.725 0.1 0
0.725 0.075 0
0.75 0.075 0
0.725 0.1 0
0.75 0.1 0
0.75 0.05 0
0.775 0.05 0
0.75 0.075 0
0.775 0.075 0
0.775 0.05 0
0.8 0.05 0
0.775 0.075 0
0.8 0.075 0
0.75 0.075 0
0.775 0.075 0
0.75 0.1 0
0.775 0.1 0
0.775 0.075 0
0.8 0.075 0
0.775 0.1 0
0.8 0.1 0
0.8 0.05 0
0.825 0.05 0
0.8 0.075 0
0.825 0.075 0
0.825 0.05 0
0.85 0.05 0
0.825 0.075 0
0.85 0.075 0
0.8 0.075 0
0.825 0.075 0
0.8 0.1 0
0.825 0.1 0
0.825 0.075 0
0.85 0.075 0
0.825 0.1 0
0.85 0.1 0
0.85 0.05 0
0.875 0.05 0
0.85 0.075 0
0.875 0.075 0
0.875 0.05 0
0.9 0.05 0
0.875 0.075 0
0.9 0.075 0
0.85 0.075 0
0.875 0.075 0
0.85 0.1 0
0.875 0.1 0
0.875 0.075 0
0.9 0.075 0
0.875 0.1 0
0.9 0.1 0
0.9 0.05 0
0.925 0.05 0
0.9 0.075 0
0.925 0.075 0
0.925 0.05 0
0.95 0.05 0
0.925 0.075 0
0.95 0.075 0
0.9 0.075 0
0.925 0.075 0
0.9 0.1 0
0.925 0.1 0
0.925 0.075 0
0.95 0.075 0
0.925 0.1 0
0.95 0.1 0
0.95 0.05 0
0.975 0.05 0
0.95 0.075 0
0.975 0.075 0
0.975 0.05 0
1 0.05 0
0.975 0.075 0
1 0.075 0
0.95 0.075 0
0.975 0.075 0
0.95 0.1 0
0.975 0.1 0
0.975 0.075 0
1 0.075 0
0.975 0.1 0
1 0.1 0
1 0.05 0
1.025 0.05 0
1 0.075 0
1.025 0.075 0
1.025 0.05 0
1.05 0.05 0
1.025 0.075 0
1.05 0.075 0
1 0.075 0
1.025 0.075 0
1 0.1 0
1.025 0.1 0
1.025 0.075 0
1.05 0.075 0
1.025 0.1 0
1.05 0.1 0
1.05 0.05 0
1.075 0.05 0
1.05 0.075 0
1.075 0.075 0
1.075 0.05 0
1.1 0.05 0
1.075 0.075 0
1.1 0.075 0
1.05 0.075 0
1.075 0.075 0
1.05 0.1 0
1.075 0.1 0
1.075 0.075 0
1.1 0.075 0
1.075 0.1 0
1.1 0.1 0
1.1 0.05 0
1.125 0.05 0
1.1 0.075 0
1.125 0.075 0
1.125 0.05 0
1.15 0.05 0
1.125 0.075 0
1.15 0.075 0
1.1 0.075 0
1.125 0.075 0
1.1 0.1 0
1.125 0.1 0
1.125 0.075 0
1.15 0.075 0
1.125 0.1 0
1.15 0.1 0
1.15 0.05 0
1.175 0.05 0
1.15 0.075 0
1.175 0.075 0
1.175 0.05 0
1.2 0.05 0
1.175 0.075 0
1.2 0.075 0
1.15 0.075 0
1.175 0.075 0
1.15 0.1 0
1.175 0.1 0
1.175 0.075 0
1.2 0.075 0
1.175 0.1 0
1.2 0.1 0
1.2 0.05 0
1.225 0.05 0
1.2 0.075 0
1.225 0.075 0
1.225 0.05 0
1.25 0.05 0
1.225 0.075 0
1.25 0.075 0
1.2 0.075 0
1.225 0.075 0
1.2 0.1 0
1.225 0.1 0
1.225 0.075 0
[...]
POINT_DATA 11912
SCALARS x_displacement double 1
LOOKUP_TABLE default
0 -1.49666 0 -0.862466 -1.49666 -2.61276 -0.862466 -1.76218 -2.61276 -3.52558 -1.76218 -2.54612 -3.52558 -4.30369 -2.54612 -3.24089 -4.30369 -4.99497 -3.24089 -3.86115 -4.99497 -5.64716 -3.86115 -4.42644 -5.64716 -6.29998 -4.42644 -4.97524 -6.29998 -6.97538 -4.97524 -5.52922 -6.97538 -7.65741 -5.52922 -6.11205 -7.65741 -8.30996 -6.11205 -6.72384 -8.30996 -8.90913 -6.72384 -7.35655 -8.90913 -9.46308 -7.35655 -7.9991 -9.46308 -10.0001 -7.9991 -8.63404 -10.0001 -10.5542 -8.63404 -9.24189 -10.5542 -11.1407 -9.24189 -9.81572 -11.1407 -11.7491 -9.81572 -10.3604 -11.7491 -12.3596 -10.3604 -10.8869 -12.3596 -12.9582 -10.8869 -11.4045 -12.9582 -13.5378 -11.4045 -11.9177 -13.5378 -14.097 -11.9177 -12.4277 -14.097 -14.6413 -12.4277 -12.9308 -14.6413 -15.1904 -12.9308 -13.4204 -15.1904 -15.7685 -13.4204 -13.8955 -15.7685 -16.3635 -13.8955 -14.3536 -16.3635 -16.894 -14.3536 -14.7756 -16.894 -17.2742 -14.7756 -15.152 -1.76218 -2.54612 -1.18184 -1.78494 -2.54612 -3.24089 -1.78494 -2.3441 -3.24089 -3.86115 -2.3441 -2.84908 -3.86115 -4.42644 -2.84908 -3.28563 -2.3441 -2.84908 -1.55945 -1.96708 -2.84908 -3.28563 -1.96708 -2.32689 -1.01065 -1.12621 -0.0133895 -0.0129193 -1.12621 -1.18391 -0.0129193 -0.012945 -1.34707 -1.35376 -0.00550282 -0.00491223 -2.07835 -2.33751 -0.00206226 -0.00223294 -2.33751 -2.407 -0.00223294 -0.00233646 -0.199162 -0.112575 0.322884 0.46331 -0.0133895 -0.0129193 0.983849 1.10019 -0.0129193 -0.012945 1.10019 1.15807 -0.00206226 -0.00223294 2.07379 2.33278 -0.00223294 -0.00233646 2.33278 2.40211 1.54183 1.9498 2.33627 2.84069 1.9498 2.30961 2.84069 3.27649 1.17534 1.77761 1.76455 2.54878 1.77761 2.33627 2.54878 3.24313 2.33627 2.84069 3.24313 3.86236 2.84069 3.27649 3.86236 4.4263 0 0.863784 0 1.50553 0.863784 1.76455 1.50553 2.62607 1.76455 2.54878 2.62607 3.54015 2.54878 3.24313 3.54015 4.31753 3.24313 3.86236 4.31753 5.00686 3.86236 4.4263 5.00686 5.65631 4.4263 4.97365 5.65631 6.3058 4.97365 5.52595 6.3058 6.9776 5.52595 6.10703 6.9776 7.65599 6.10703 6.71713 7.65599 8.30482 6.71713 7.34854 8.30482 8.90023 7.34854 7.99006 8.90023 9.4507 7.99006 8.62428 9.4507 9.98478 8.62428 9.23161 9.98478 10.5365 9.23161 9.80509 10.5365 11.121 9.80509 10.3496 11.121 11.7281 10.3496 10.876 11.7281 12.3378 10.876 11.3935 12.3378 12.9365 11.3935 11.9065 12.9365 13.5173 11.9065 12.4163 13.5173 14.0782 12.4163 12.9195 14.0782 14.6248 12.9195 13.4092 14.6248 15.1761 13.4092 13.8847 15.1761 15.7563 13.8847 14.3431 15.7563 16.3527 14.3431 14.7651 16.3527 16.8835 14.7651 15.1415 16.8835 17.2634 -17.2742 -17.424 -16.2131 -16.3519 -17.424 -17.5379 -16.3519 -16.5045 -16.2131 -16.3519 -15.152 -15.3257 -16.3519 -16.5045 -15.3257 -15.4775 -17.5379 -17.6637 -16.5045 -16.6622 -17.6637 -17.73 -16.6622 -16.8102 -16.5045 -16.6622 -15.4775 -15.6117 -16.6622 -16.8102 -15.6117 -15.7328 -17.73 -17.7926 -16.8102 -16.9005 -17.7926 -18.2207 -16.9005 -16.9309 -16.8102 -16.9005 -15.7328 -15.8516 -16.9005 -16.9309 -15.8516 -15.9467 -18.2207 -18.4925 -16.9309 -17.0911 -18.4925 -18.6934 -17.0911 -17.3782 -16.9309 -17.0911 -15.9467 -16.0171 -17.0911 -17.3782 -16.0171 -16.0985 -18.6934 -18.9086 -17.3782 -17.599 -18.9086 -19.0962 -17.599 -17.7914 -17.3782 -17.599 -16.0985 -16.3429 -17.599 -17.7914 -16.3429 -16.5346 -19.0962 -19.2599 -17.7914 -17.9652 -19.2599 -19.4062 -17.9652 -18.1219 -17.7914 -17.9652 -16.5346 -16.7065 -17.9652 -18.1219 -16.7065 -16.8786 -19.4062 -19.5358 -18.1219 -18.2632 -19.5358 -19.6485 -18.2632 -18.3867 -18.1219 -18.2632 -16.8786 -17.0293 -18.2632 -18.3867 -17.0293 -17.1618 -19.6485 -19.7438 -18.3867 -18.4938 -19.7438 -19.8224 -18.4938 -18.5856 -18.3867 -18.4938 -17.1618 -17.2797 -18.4938 -18.5856 -17.2797 -17.3832 -19.8224 -19.8853 -18.5856 -18.6624 -19.8853 -19.933 -18.6624 -18.7249 -18.5856 -18.6624 -17.3832 -17.4727 -18.6624 -18.7249 -17.4727 -17.5481 -19.933 -19.9662 -18.7249 -18.7736 -19.9662 -19.9861 -18.7736 -18.8097 -18.7249 -18.7736 -17.5481 -17.61 -18.7736 -18.8097 -17.61 -17.6591 -19.9861 -19.9942 -18.8097 -18.8344 -19.9942 -19.9927 -18.8344 -18.8494 -18.8097 -18.8344 -17.6591 -17.6966 -18.8344 -18.8494 -17.6966 -17.7235 -19.9927 -19.9844 -18.8494 -18.8569 -19.9844 -19.9726 -18.8569 -18.859 -18.8494 -18.8569 -17.7235 -17.7416 -18.8569 -18.859 -17.7416 -17.7524 -19.9726 -19.9605 -18.859 -18.8579 -19.9605 -19.9513 -18.8579 -18.8559 -18.859 -18.8579 -17.7524 -17.758 -18.8579 -18.8559 -17.758 -17.7602 -19.9513 -19.9468 -18.8559 -18.8545 -19.9468 -19.9458 -18.8545 -18.8544 -18.8559 -18.8545 -17.7602 -17.7612 -18.8545 -18.8544 -17.7612 -17.7627 0 -0.431233 0 -0.352898 -0.431233 -0.862466 -0.352898 -0.720824 0 -0.352898 0 -0.270401 -0.352898 -0.720824 -0.270401 -0.582347 -0.862466 -1.31232 -0.720824 -1.09037 -1.31232 -1.76218 -1.09037 -1.47201 -0.720824 -1.09037 -0.582347 -0.888213 -1.09037 -1.47201 -0.888213 -1.18184 -4.42644 -4.70084 -3.85604 -4.08006 -4.70084 -4.97524 -4.08006 -4.30633 -3.85604 -4.08006 -3.28563 -3.48269 -4.08006 -4.30633 -3.48269 -3.65323 -4.97524 -5.25223 -4.30633 -4.54331 -5.25223 -5.52922 -4.54331 -4.79386 -4.30633 -4.54331 -3.65323 -3.82998 -4.54331 -4.79386 -3.82998 -4.04121 -5.52922 -5.82063 -4.79386 -5.05173 -5.82063 -6.11205 -5.05173 -5.31809 -4.79386 -5.05173 -4.04121 -4.27064 -5.05173 -5.31809 -4.27064 -4.48902 -6.11205 -6.41794 -5.31809 -5.60871 -6.41794 -6.72384 -5.60871 -5.92241 -5.31809 -5.60871 -4.48902 -4.75285 -5.60871 -5.92241 -4.75285 -5.07387 -6.72384 -7.04019 -5.92241 -6.24427 -7.04019 -7.35655 -6.24427 -6.57687 -5.92241 -6.24427 -5.07387 -5.42541 -6.24427 -6.57687 -5.42541 -5.77183 -7.35655 -7.67782 -6.57687 -6.92113 -7.67782 -7.9991 -6.92113 -7.27347 -6.57687 -6.92113 -5.77183 -6.15376 -6.92113 -7.27347 -6.15376 -6.55685 -7.9991 -8.31657 -7.27347 -7.62548 -8.31657 -8.63404 -7.62548 -7.96925 -7.27347 -7.62548 -6.55685 -6.95819 -7.62548 -7.96925 -6.95819 -7.34481 -8.63404 -8.93797 -7.96925 -8.29886 -8.93797 -9.24189 -8.29886 -8.60925 -7.96925 -8.29886 -7.34481 -7.70296 -8.29886 -8.60925 -7.70296 -8.02148 -9.24189 -9.52881 -8.60925 -8.89799 -9.52881 -9.81572 -8.89799 -9.17067 -8.60925 -8.89799 -8.02148 -8.29725 -8.89799 -9.17067 -8.29725 -8.54754 -9.81572 -10.0881 -9.17067 -9.42635 -10.0881 -10.3604 -9.42635 -9.67591 -9.17067 -9.42635 -8.54754 -8.77387 -9.42635 -9.67591 -8.77387 -8.99712 -10.3604 -10.6236 -9.67591 -9.91795 -10.6236 -10.8869 -9.91795 -10.1568 -9.67591 -9.91795 -8.99712 -9.21476 -9.91795 -10.1568 -9.21476 -9.4261 -10.8869 -11.1457 -10.1568 -10.3945 -11.1457 -11.4045 -10.3945 -10.6324 -10.1568 -10.3945 -9.4261 -9.64035 -10.3945 -10.6324 -9.64035 -9.8569 -11.4045 -11.6611 -10.6324 -10.8715 -11.6611 -11.9177 -10.8715 -11.1121 -10.6324 -10.8715 -9.8569 -10.0777 -10.8715 -11.1121 -10.0777 -10.3026 -11.9177 -12.1727 -11.1121 -11.3541 -12.1727 -12.4277 -11.3541 -11.5971 -11.1121 -11.3541 -10.3026 -10.5314 -11.3541 -11.5971 -10.5314 -10.7641 -12.4277 -12.6792 -11.5971 -11.8401 -12.6792 -12.9308 -11.8401 -12.0807 -11.5971 -11.8401 -10.7641 -11 -11.8401 -12.0807 -11 -11.2374 -12.9308 -13.1756 -12.0807 -12.3171 -13.1756 -13.4204 -12.3171 -12.5448 -12.0807 -12.3171 -11.2374 -11.4714 -12.3171 -12.5448 -11.4714 -11.6974 -13.4204 -13.658 -12.5448 -12.7666 -13.658 -13.8955 -12.7666 -12.9798 -12.5448 -12.7666 -11.6974 -11.9109 -12.7666 -12.9798 -11.9109 -12.1105 -13.8955 -14.1246 -12.9798 -13.1903 -14.1246 -14.3536 -13.1903 -13.3913 -12.9798 -13.1903 -12.1105 -12.2929 -13.1903 -13.3913 -12.2929 -12.4617 -14.3536 -14.5646 -13.3913 -13.5868 -14.5646 -14.7756 -13.5868 -13.7739 -13.3913 -13.5868 -12.4617 -12.6216 -13.5868 -13.7739 -12.6216 -12.7786 -14.7756 -14.9638 -13.7739 -13.9534 -14.9638 -15.152 -13.9534 -14.1208 -13.7739 -13.9534 -12.7786 -12.9326 -13.9534 -14.1208 -12.9326 -13.078 -15.152 -15.3257 -14.1208 -14.2711 -15.3257 -15.4775 -14.2711 -14.4086 -14.1208 -14.2711 -13.078 -13.2114 -14.2711 -14.4086 -13.2114 -13.3368 -15.4775 -15.6117 -14.4086 -14.5387 -15.6117 -15.7328 -14.5387 -14.6602 -14.4086 -14.5387 -13.3368 -13.4587 -14.5387 -14.6602 -13.4587 -13.5801 -15.7328 -15.8516 -14.6602 -14.7705 -15.8516 -15.9467 -14.7705 -14.8919 -14.6602 -14.7705 -13.5801 -13.7025 -14.7705 -14.8919 -13.7025 -13.8319 -15.9467 -16.0171 -14.8919 -15.0457 -16.0171 -16.0985 -15.0457 -15.1256 -14.8919 -15.0457 -13.8319 -13.9539 -15.0457 -15.1256 -13.9539 -14.0747 -16.0985 -16.3429 -15.1256 -15.1261 -16.3429 -16.5346 -15.1261 -15.2883 -15.1256 -15.1261 -14.0747 -14.1742 -15.1261 -15.2883 -14.1742 -14.2557 -16.5346 -16.7065 -15.2883 -15.5004 -16.7065 -16.8786 -15.5004 -15.6765 -15.2883 -15.5004 -14.2557 -14.3078 -15.5004 -15.6765 -14.3078 -14.5008 -16.8786 -17.0293 -15.6765 -15.8296 -17.0293 -17.1618 -15.8296 -15.9712 -15.6765 -15.8296 -14.5008 -14.6632 -15.8296 -15.9712 -14.6632 -14.8085 -17.1618 -17.2797 -15.9712 -16.0988 -17.2797 -17.3832 -16.0988 -16.214 -15.9712 -16.0988 -14.8085 -14.9522 -16.0988 -16.214 -14.9522 -15.0775 -17.3832 -17.4727 -16.214 -16.3148 -17.4727 -17.5481 -16.3148 -16.4015 -16.214 -16.3148 -15.0775 -15.1877 -16.3148 -16.4015 -15.1877 -15.2844 -17.5481 -17.61 -16.4015 -16.4745 -17.61 -17.6591 -16.4745 -16.5342 -16.4015 -16.4745 -15.2844 -15.3665 -16.4745 -16.5342 -15.3665 -15.4348 -17.6591 -17.6966 -16.5342 -16.5814 -17.6966 -17.7235 -16.5814 -16.6171 -16.5342 -16.5814 -15.4348 -15.49 -16.5814 -16.6171 -15.49 -15.5325 -17.7235 -17.7416 -16.6171 -16.6425 -17.7416 -17.7524 -16.6425 -16.6588 -16.6171 -16.6425 -15.5325 -15.5631 -16.6425 -16.6588 -15.5631 -15.583 -17.7524 -17.758 -16.6588 -16.6681 -17.758 -17.7602 -16.6681 -16.6724 -16.6588 -16.6681 -15.583 -15.594 -16.6681 -16.6724 -15.594 -15.5989 -17.7602 -17.7612 -16.6724 -16.6744 -17.7612 -17.7627 -16.6744 -16.6769 -16.6724 -16.6744 -15.5989 -15.6008 -16.6744 -16.6769 -15.6008 -15.6035 0 -0.270401 0 -0.201306 -0.270401 -0.582347 -0.201306 -0.453379 0 -0.201306 0 -0.10844 -0.201306 -0.453379 -0.10844 -0.265433 -0.582347 -0.888213 -0.453379 -0.685568 -0.888213 -1.18184 -0.685568 -0.938987 -0.453379 -0.685568 -0.265433 -0.474694 -0.685568 -0.938987 -0.474694 -0.711266 -1.18184 -1.48339 -0.938987 -1.19942 -1.48339 -1.78494 -1.19942 -1.45146 -0.938987 -1.19942 -0.711266 -0.918484 -1.19942 -1.45146 -0.918484 -1.13199 -1.78494 -2.06452 -1.45146 -1.70276 -2.06452 -2.3441 -1.70276 -1.95177 -1.45146 -1.70276 -1.13199 -1.35101 -1.70276 -1.95177 -1.35101 -1.55945 -3.28563 -3.48269 -2.80626 -2.95671 -3.48269 -3.65323 -2.95671 -3.09521 -2.80626 -2.95671 -2.32689 -2.49264 -2.95671 -3.09521 -2.49264 -2.63734 -3.65323 -3.82998 -3.09521 -3.21497 -3.82998 -4.04121 -3.21497 -3.33966 -3.09521 -3.21497 -2.63734 -2.76536 -3.21497 -3.33966 -2.76536 -2.892 -4.04121 -4.27064 -3.33966 -3.50845 -4.27064 -4.48902 -3.50845 -3.71452 -3.33966 -3.50845 -2.892 -3.02539 -3.50845 -3.71452 -3.02539 -3.16054 -4.48902 -4.75285 -3.71452 -3.91704 -4.75285 -5.07387 -3.91704 -4.11562 -3.71452 -3.91704 -3.16054 -3.29085 -3.91704 -4.11562 -3.29085 -3.39201 -5.07387 -5.42541 -4.11562 -4.43278 -5.42541 -5.77183 -4.43278 -4.93961 -4.11562 -4.43278 -3.39201 -3.45409 -4.43278 -4.93961 -3.45409 -3.54462 -5.77183 -6.15376 -4.93961 -5.37084 -6.15376 -6.55685 -5.37084 -5.85559 -4.93961 -5.37084 -3.54462 -4.28337 -5.37084 -5.85559 -4.28337 -5.45963 -6.55685 -6.95819 -5.85559 -6.33455 -6.95819 -7.34481 -6.33455 -6.75307 -5.85559 -6.33455 -5.45963 -6.04147 -6.33455 -6.75307 -6.04147 -6.37189 -7.34481 -7.70296 -6.75307 -7.14911 -7.70296 -8.02148 -7.14911 -7.44059 -6.75307 -7.14911 -6.37189 -6.6389 -7.14911 -7.44059 -6.6389 -6.90723 -8.02148 -8.29725 -7.44059 -7.70331 -8.29725 -8.54754 -7.70331 -7.91451 -7.44059 -7.70331 -6.90723 -7.07195 -7.70331 -7.91451 -7.07195 -7.29808 -8.54754 -8.77387 -7.91451 -8.11793 -8.77387 -8.99712 -8.11793 -8.30987 -7.91451 -8.11793 -7.29808 -7.43547 -8.11793 -8.30987 -7.43547 -7.62997 -8.99712 -9.21476 -8.30987 -8.50599 -9.21476 -9.4261 -8.50599 -8.69015 -8.30987 -8.50599 -7.62997 -7.78663 -8.50599 -8.69015 -7.78663 -7.95364 -9.4261 -9.64035 -8.69015 -8.88198 -9.64035 -9.8569 -8.88198 -9.07754 -8.69015 -8.88198 -7.95364 -8.12177 -8.88198 -9.07754 -8.12177 -8.29752 -9.8569 -10.0777 -9.07754 -9.28024 -10.0777 -10.3026 -9.28024 -9.48947 -9.07754 -9.28024 -8.29752 -8.48237 -9.28024 -9.48947 -8.48237 -8.67598 -10.3026 -10.5314 -9.48947 -9.7052 -10.5314 -10.7641 -9.7052 -9.9283 -9.48947 -9.7052 -8.67598 -8.87886 -9.7052 -9.9283 -8.87886 -9.09338 -10.7641 -11 -9.9283 -10.1615 -11 -11.2374 -10.1615 -10.4051 -9.9283 -10.1615 -9.09338 -9.33074 -10.1615 -10.4051 -9.33074 -9.59141 -11.2374 -11.4714 -10.4051 -10.6534 -11.4714 -11.6974 -10.6534 -10.9012 -10.4051 -10.6534 -9.59141 -9.91201 -10.6534 -10.9012 -9.91201 -10.2664 -11.6974 -11.9109 -10.9012 -11.1314 -11.9109 -12.1105 -11.1314 -11.3099 -10.9012 -11.1314 -10.2664 -10.4559 -11.1314 -11.3099 -10.4559 -10.5547 -12.1105 -12.2929 -11.3099 -11.4443 -12.2929 -12.4617 -11.4443 -11.5587 -11.3099 -11.4443 -10.5547 -10.6221 -11.4443 -11.5587 -10.6221 -10.6747 -12.4617 -12.6216 -11.5587 -11.6653 -12.6216 -12.7786 -11.6653 -11.7714 -11.5587 -11.6653 -10.6747 -10.7189 -11.6653 -11.7714 -10.7189 -10.758 -12.7786 -12.9326 -11.7714 -11.8831 -12.9326 -13.078 -11.8831 -12.0026 -11.7714 -11.8831 -10.758 -10.8008 -11.8831 -12.0026 -10.8008 -10.8729 -13.078 -13.2114 -12.0026 -12.1252 -13.2114 -13.3368 -12.1252 -12.246 -12.0026 -12.1252 -10.8729 -10.9883 -12.1252 -12.246 -10.9883 -11.1279 -13.3368 -13.4587 -12.246 -12.3702 -13.4587 -13.5801 -12.3702 -12.498 -12.246 -12.3702 -11.1279 -11.2687 -12.3702 -12.498 -11.2687 -11.4062 -13.5801 -13.7025 -12.498 -12.6258 -13.7025 -13.8319 -12.6258 -12.7556 -12.498 -12.6258 -11.4062 -11.5425 -12.6258 -12.7556 -11.5425 -11.6781 -13.8319 -13.9539 -12.7556 -12.883 -13.9539 -14.0747 -12.883 -13.0012 -12.7556 -12.883 -11.6781 -11.813 -12.883 -13.0012 -11.813 -11.9486 -14.0747 -14.1742 -13.0012 -13.1326 -14.1742 -14.2557 -13.1326 -13.2895 -13.0012 -13.1326 -11.9486 -12.0893 -13.1326 -13.2895 -12.0893 -12.22 -14.2557 -14.3078 -13.2895 -13.3735 -14.3078 -14.5008 -13.3735 -13.362 -13.2895 -13.3735 -12.22 -12.3524 -13.3735 -13.362 -12.3524 -12.4869 -14.5008 -14.6632 -13.362 -13.4849 -14.6632 -14.8085 -13.4849 -13.6919 -13.362 -13.4849 -12.4869 -12.5903 -13.4849 -13.6919 -12.5903 -12.6085 -14.8085 -14.9522 -13.6919 -13.8439 -14.9522 -15.0775 -13.8439 -13.9711 -13.6919 -13.8439 -12.6085 -12.7647 -13.8439 -13.9711 -12.7647 -12.8972 -15.0775 -15.1877 -13.9711 -14.0915 -15.1877 -15.2844 -14.0915 -14.1963 -13.9711 -14.0915 -12.8972 -13.0261 -14.0915 -14.1963 -13.0261 -13.1347 -15.2844 -15.3665 -14.1963 -14.2854 -15.3665 -15.4348 -14.2854 -14.3611 -14.1963 -14.2854 -13.1347 -13.2294 -14.2854 -14.3611 -13.2294 -13.3125 -15.4348 -15.49 -14.3611 -14.4234 -15.49 -15.5325 -14.4234 -14.472 -14.3611 -14.4234 -13.3125 -13.3829 -14.4234 -14.472 -13.3829 -13.4373 -15.5325 -15.5631 -14.472 -14.5067 -15.5631 -15.583 -14.5067 -14.5289 -14.472 -14.5067 -13.4373 -13.476 -14.5067 -14.5289 -13.476 -13.5003 -15.583 -15.594 -14.5289 -14.5407 -15.594 -15.5989 -14.5407 -14.545 -14.5289 -14.5407 -13.5003 -13.5123 -14.5407 -14.545 -13.5123 -13.5153 -15.5989 -15.6008 -14.545 -14.5458 -15.6008 -15.6035 -14.5458 -14.5478 -14.545 -14.5458 -13.5153 -13.5141 -14.5458 -14.5478 -13.5141 -13.5143 0 -0.10844 0 -0.0971911 -0.10844 -0.265433 -0.0971911 -0.0598474 0 -0.0971911 0 -0.101916 -0.0971911 -0.0598474 -0.101916 -0.228203 -0.265433 -0.474694 -0.0598474 -0.262375 -0.474694 -0.711266 -0.262375 -0.449409 -0.0598474 -0.262375 -0.228203 -0.379867 -0.262375 -0.449409 -0.379867 -0.213069 -0.711266 -0.918484 -0.449409 -0.634198 -0.918484 -1.13199 -0.634198 -0.825495 -0.449409 -0.634198 -0.213069 -0.333027 -0.634198 -0.825495 -0.333027 -0.48705 -1.13199 -1.35101 -0.825495 -1.00273 -1.35101 -1.55945 -1.00273 -1.18838 -0.825495 -1.00273 -0.48705 -0.653096 -1.00273 -1.18838 -0.653096 -0.831396 -1.55945 -1.76327 -1.18838 -1.37981 -1.76327 -1.96708 -1.37981 -1.56055 -1.18838 -1.37981 -0.831396 -0.994816 -1.37981 -1.56055 -0.994816 -1.16529 -1.96708 -2.14698 -1.56055 -1.73743 -2.14698 -2.32689 -1.73743 -1.9063 -1.56055 -1.73743 -1.16529 -1.34027 -1.73743 -1.9063 -1.34027 -1.50644 -2.32689 -2.49264 -1.9063 -2.06761 -2.49264 -2.63734 -2.06761 -2.222 -1.9063 -2.06761 -1.50644 -1.66909 -2.06761 -2.222 -1.66909 -1.83027 -2.63734 -2.76536 -2.222 -2.37012 -2.76536 -2.892 -2.37012 -2.51693 -2.222 -2.37012 -1.83027 -1.98873 -2.37012 -2.51693 -1.98873 -2.14421 -2.892 -3.02539 -2.51693 -2.65728 -3.02539 -3.16054 -2.65728 -2.79204 -2.51693 -2.65728 -2.14421 -2.2991 -2.65728 -2.79204 -2.2991 -2.45942 -3.16054 -3.29085 -2.79204 -2.93126 -3.29085 -3.39201 -2.93126 -3.07119 -2.79204 -2.93126 -2.45942 -2.61824 -2.93126 -3.07119 -2.61824 -2.77554 -3.39201 -3.45409 -3.07119 -3.24746 -3.45409 -3.54462 -3.24746 -3.41161 -3.07119 -3.24746 -2.77554 -2.94807 -3.24746 -3.41161 -2.94807 -3.12014 -3.54462 -4.28337 -3.41161 -3.33771 -4.28337 -5.45963 -3.33771 -3.50057 -3.41161 -3.33771 -3.12014 -3.29245 -3.33771 -3.50057 -3.29245 -3.44854 -5.45963 -6.04147 -3.50057 -4.38085 -6.04147 -6.37189 -4.38085 -5.0119 -3.50057 -4.38085 -3.44854 -3.34389 -4.38085 -5.0119 -3.34389 -3.38734 -6.37189 -6.6389 -5.0119 -5.38083 -6.6389 -6.90723 -5.38083 -5.71968 -5.0119 -5.38083 -3.38734 -4.14439 -5.38083 -5.71968 -4.14439 -4.6339 -6.90723 -7.07195 -5.71968 -6.06785 -7.07195 -7.29808 -6.06785 -6.34993 -5.71968 -6.06785 -4.6339 -5.04018 -6.06785 -6.34993 -5.04018 -5.38751 -7.29808 -7.43547 -6.34993 -6.60352 -7.43547 -7.62997 -6.60352 -6.82344 -6.34993 -6.60352 -5.38751 -5.68999 -6.60352 -6.82344 -5.68999 -5.99178 -7.62997 -7.78663 -6.82344 -7.0468 -7.78663 -7.95364 -7.0468 -7.26858 -6.82344 -7.0468 -5.99178 -6.25625 -7.0468 -7.26858 -6.25625 -6.53438 -7.95364 -8.12177 -7.26858 -7.49749 -8.12177 -8.29752 -7.49749 -7.72696 -7.26858 -7.49749 -6.53438 -6.82109 -7.49749 -7.72696 -6.82109 -7.09961 -8.29752 -8.48237 -7.72696 -7.95231 -8.48237 -8.67598 -7.95231 -8.17391 -7.72696 -7.95231 -7.09961 -7.36105 -7.95231 -8.17391 -7.36105 -7.60658 -8.67598 -8.87886 -8.17391 -8.40032 -8.87886 -9.09338 -8.40032 -8.66765 -8.17391 -8.40032 -7.60658 -7.84239 -8.40032 -8.66765 -7.84239 -8.10295 -9.09338 -9.33074 -8.66765 -9.15098 -9.33074 -9.59141 -9.15098 -9.41929 -8.66765 -9.15098 -8.10295 -8.36299 -9.15098 -9.41929 -8.36299 -8.69105 -9.59141 -9.91201 -9.41929 -9.6062 -9.91201 -10.2664 -9.6062 -9.67067 -9.41929 -9.6062 -8.69105 -8.83427 -9.6062 -9.67067 -8.83427 -8.90205 -10.2664 -10.4559 -9.67067 -9.73283 -10.4559 -10.5547 -9.73283 -9.77378 -9.67067 -9.73283 -8.90205 -8.93561 -9.73283 -9.77378 -8.93561 -8.94785 -10.5547 -10.6221 -9.77378 -9.79376 -10.6221 -10.6747 -9.79376 -9.79806 -9.77378 -9.79376 -8.94785 -8.94201 -9.79376 -9.79806 -8.94201 -8.9154 -10.6747 -10.7189 -9.79806 -9.78819 -10.7189 -10.758 -9.78819 -9.76485 -9.79806 -9.78819 -8.9154 -8.87053 -9.78819 -9.76485 -8.87053 -8.80688 -10.758 -10.8008 -9.76485 -9.72445 -10.8008 -10.8729 -9.72445 -9.69784 -9.76485 -9.72445 -8.80688 -8.72434 -9.72445 -9.69784 -8.72434 -8.57209 -10.8729 -10.9883 -9.69784 -9.82383 -10.9883 -11.1279 -9.82383 -10.0035 -9.69784 -9.82383 -8.57209 -8.66023 -9.82383 -10.0035 -8.66023 -8.86071 -11.1279 -11.2687 -10.0035 -10.1495 -11.2687 -11.4062 -10.1495 -10.303 -10.0035 -10.1495 -8.86071 -9.03621 -10.1495 -10.303 -9.03621 -9.21433 -11.4062 -11.5425 -10.303 -10.4588 -11.5425 -11.6781 -10.4588 -10.6059 -10.303 -10.4588 -9.21433 -9.37382 -10.4588 -10.6059 -9.37382 -9.53296 -11.6781 -11.813 -10.6059 -10.7505 -11.813 -11.9486 -10.7505 -10.8936 -10.6059 -10.7505 -9.53296 -9.69197 -10.7505 -10.8936 -9.69197 -9.84259 -11.9486 -12.0893 -10.8936 -11.0372 -12.0893 -12.22 -11.0372 -11.177 -10.8936 -11.0372 -9.84259 -9.98974 -11.0372 -11.177 -9.98974 -10.1348 -12.22 -12.3524 -11.177 -11.3109 -12.3524 -12.4869 -11.3109 -11.4525 -11.177 -11.3109 -10.1348 -10.281 -11.3109 -11.4525 -10.281 -10.426 -12.4869 -12.5903 -11.4525 -11.6004 -12.5903 -12.6085 -11.6004 -11.6924 -11.4525 -11.6004 -10.426 -10.5567 -11.6004 -11.6924 -10.5567 -10.6976 -12.6085 -12.7647 -11.6924 -11.7304 -12.7647 -12.8972 -11.7304 -11.8445 -11.6924 -11.7304 -10.6976 -10.8659 -11.7304 -11.8445 -10.8659 -10.9544 -12.8972 