# vtk DataFile Version 3.0
#This file was generated by the deal.II library on 2015/8/30 at 10:13:44
ASCII
DATASET UNSTRUCTURED_GRID

POINTS 20 double
1 0 0
2 0 0
1 1 0
2 1 0
0 0 0
0.5 0 0
0 0.5 0
0.5 0.5 0
0.5 0 0
1 0 0
0.5 0.5 0
1 0.5 0
0 0.5 0
0.5 0.5 0
0 1 0
0.5 1 0
0.5 0.5 0
1 0.5 0
0.5 1 0
1 1 0

CELLS 5 25
4	0	1	3	2
4	4	5	7	6
4	8	9	11	10
4	12	13	15	14
4	16	17	19	18

CELL_TYPES 5
 9 9 9 9 9
POINT_DATA 20
SCALARS x_displacement double 1
LOOKUP_TABLE default
-41.1395 -63.0257 41.1395 63.0257 0 -20.4966 0 5.77193e-14 -20.4966 -41.1395 5.77193e-14 -1.77636e-14 0 5.77193e-14 0 20.4966 5.77193e-14 -1.77636e-14 20.4966 41.1395 
SCALARS y_displacement double 1
LOOKUP_TABLE default
-53.7785 -187.695 -53.7785 -187.695 0 -17.758 0 -13.5283 -17.758 -53.7785 -13.5283 -53.7785 0 -13.5283 0 -17.758 -13.5283 -53.7785 -17.758 -53.7785 
