# vtk DataFile Version 3.0
#This file was generated by the deal.II library on 2015/9/1 at 17:13: 2
ASCII
DATASET UNSTRUCTURED_GRID

POINTS 11912 double
0 0 0
0.05 0 0
0 0.05 0
0.05 0.05 0
0.05 0 0
0.1 0 0
0.05 0.05 0
0.1 0.05 0
0.1 0 0
0.15 0 0
0.1 0.05 0
0.15 0.05 0
0.15 0 0
0.2 0 0
0.15 0.05 0
0.2 0.05 0
0.2 0 0
0.25 0 0
0.2 0.05 0
0.25 0.05 0
0.25 0 0
0.3 0 0
0.25 0.05 0
0.3 0.05 0
0.3 0 0
0.35 0 0
0.3 0.05 0
0.35 0.05 0
0.35 0 0
0.4 0 0
0.35 0.05 0
0.4 0.05 0
0.4 0 0
0.45 0 0
0.4 0.05 0
0.45 0.05 0
0.45 0 0
0.5 0 0
0.45 0.05 0
0.5 0.05 0
0.5 0 0
0.55 0 0
0.5 0.05 0
0.55 0.05 0
0.55 0 0
0.6 0 0
0.55 0.05 0
0.6 0.05 0
0.6 0 0
0.65 0 0
0.6 0.05 0
0.65 0.05 0
0.65 0 0
0.7 0 0
0.65 0.05 0
0.7 0.05 0
0.7 0 0
0.75 0 0
0.7 0.05 0
0.75 0.05 0
0.75 0 0
0.8 0 0
0.75 0.05 0
0.8 0.05 0
0.8 0 0
0.85 0 0
0.8 0.05 0
0.85 0.05 0
0.85 0 0
0.9 0 0
0.85 0.05 0
0.9 0.05 0
0.9 0 0
0.95 0 0
0.9 0.05 0
0.95 0.05 0
0.95 0 0
1 0 0
0.95 0.05 0
1 0.05 0
1 0 0
1.05 0 0
1 0.05 0
1.05 0.05 0
1.05 0 0
1.1 0 0
1.05 0.05 0
1.1 0.05 0
1.1 0 0
1.15 0 0
1.1 0.05 0
1.15 0.05 0
1.15 0 0
1.2 0 0
1.15 0.05 0
1.2 0.05 0
1.2 0 0
1.25 0 0
1.2 0.05 0
1.25 0.05 0
1.25 0 0
1.3 0 0
1.25 0.05 0
1.3 0.05 0
0.1 0.05 0
0.15 0.05 0
0.1 0.1 0
0.15 0.1 0
0.15 0.05 0
0.2 0.05 0
0.15 0.1 0
0.2 0.1 0
0.2 0.05 0
0.25 0.05 0
0.2 0.1 0
0.25 0.1 0
0.25 0.05 0
0.3 0.05 0
0.25 0.1 0
0.3 0.1 0
0.2 0.1 0
0.25 0.1 0
0.2 0.15 0
0.25 0.15 0
0.25 0.1 0
0.3 0.1 0
0.25 0.15 0
0.3 0.15 0
0.85 0.45 0
0.9 0.45 0
0.85 0.5 0
0.9 0.5 0
0.9 0.45 0
0.95 0.45 0
0.9 0.5 0
0.95 0.5 0
1.45 0.45 0
1.5 0.45 0
1.45 0.5 0
1.5 0.5 0
1.9 0.45 0
1.95 0.45 0
1.9 0.5 0
1.95 0.5 0
1.95 0.45 0
2 0.45 0
1.95 0.5 0
2 0.5 0
0.65 0.5 0
0.7 0.5 0
0.65 0.55 0
0.7 0.55 0
0.85 0.5 0
0.9 0.5 0
0.85 0.55 0
0.9 0.55 0
0.9 0.5 0
0.95 0.5 0
0.9 0.55 0
0.95 0.55 0
1.9 0.5 0
1.95 0.5 0
1.9 0.55 0
1.95 0.55 0
1.95 0.5 0
2 0.5 0
1.95 0.55 0
2 0.55 0
0.2 0.85 0
0.25 0.85 0
0.2 0.9 0
0.25 0.9 0
0.25 0.85 0
0.3 0.85 0
0.25 0.9 0
0.3 0.9 0
0.1 0.9 0
0.15 0.9 0
0.1 0.95 0
0.15 0.95 0
0.15 0.9 0
0.2 0.9 0
0.15 0.95 0
0.2 0.95 0
0.2 0.9 0
0.25 0.9 0
0.2 0.95 0
0.25 0.95 0
0.25 0.9 0
0.3 0.9 0
0.25 0.95 0
0.3 0.95 0
0 0.95 0
0.05 0.95 0
0 1 0
0.05 1 0
0.05 0.95 0
0.1 0.95 0
0.05 1 0
0.1 1 0
0.1 0.95 0
0.15 0.95 0
0.1 1 0
0.15 1 0
0.15 0.95 0
0.2 0.95 0
0.15 1 0
0.2 1 0
0.2 0.95 0
0.25 0.95 0
0.2 1 0
0.25 1 0
0.25 0.95 0
0.3 0.95 0
0.25 1 0
0.3 1 0
0.3 0.95 0
0.35 0.95 0
0.3 1 0
0.35 1 0
0.35 0.95 0
0.4 0.95 0
0.35 1 0
0.4 1 0
0.4 0.95 0
0.45 0.95 0
0.4 1 0
0.45 1 0
0.45 0.95 0
0.5 0.95 0
0.45 1 0
0.5 1 0
0.5 0.95 0
0.55 0.95 0
0.5 1 0
0.55 1 0
0.55 0.95 0
0.6 0.95 0
0.55 1 0
0.6 1 0
0.6 0.95 0
0.65 0.95 0
0.6 1 0
0.65 1 0
0.65 0.95 0
0.7 0.95 0
0.65 1 0
0.7 1 0
0.7 0.95 0
0.75 0.95 0
0.7 1 0
0.75 1 0
0.75 0.95 0
0.8 0.95 0
0.75 1 0
0.8 1 0
0.8 0.95 0
0.85 0.95 0
0.8 1 0
0.85 1 0
0.85 0.95 0
0.9 0.95 0
0.85 1 0
0.9 1 0
0.9 0.95 0
0.95 0.95 0
0.9 1 0
0.95 1 0
0.95 0.95 0
1 0.95 0
0.95 1 0
1 1 0
1 0.95 0
1.05 0.95 0
1 1 0
1.05 1 0
1.05 0.95 0
1.1 0.95 0
1.05 1 0
1.1 1 0
1.1 0.95 0
1.15 0.95 0
1.1 1 0
1.15 1 0
1.15 0.95 0
1.2 0.95 0
1.15 1 0
1.2 1 0
1.2 0.95 0
1.25 0.95 0
1.2 1 0
1.25 1 0
1.25 0.95 0
1.3 0.95 0
1.25 1 0
1.3 1 0
1.3 0 0
1.325 0 0
1.3 0.025 0
1.325 0.025 0
1.325 0 0
1.35 0 0
1.325 0.025 0
1.35 0.025 0
1.3 0.025 0
1.325 0.025 0
1.3 0.05 0
1.325 0.05 0
1.325 0.025 0
1.35 0.025 0
1.325 0.05 0
1.35 0.05 0
1.35 0 0
1.375 0 0
1.35 0.025 0
1.375 0.025 0
1.375 0 0
1.4 0 0
1.375 0.025 0
1.4 0.025 0
1.35 0.025 0
1.375 0.025 0
1.35 0.05 0
1.375 0.05 0
1.375 0.025 0
1.4 0.025 0
1.375 0.05 0
1.4 0.05 0
1.4 0 0
1.425 0 0
1.4 0.025 0
1.425 0.025 0
1.425 0 0
1.45 0 0
1.425 0.025 0
1.45 0.025 0
1.4 0.025 0
1.425 0.025 0
1.4 0.05 0
1.425 0.05 0
1.425 0.025 0
1.45 0.025 0
1.425 0.05 0
1.45 0.05 0
1.45 0 0
1.475 0 0
1.45 0.025 0
1.475 0.025 0
1.475 0 0
1.5 0 0
1.475 0.025 0
1.5 0.025 0
1.45 0.025 0
1.475 0.025 0
1.45 0.05 0
1.475 0.05 0
1.475 0.025 0
1.5 0.025 0
1.475 0.05 0
1.5 0.05 0
1.5 0 0
1.525 0 0
1.5 0.025 0
1.525 0.025 0
1.525 0 0
1.55 0 0
1.525 0.025 0
1.55 0.025 0
1.5 0.025 0
1.525 0.025 0
1.5 0.05 0
1.525 0.05 0
1.525 0.025 0
1.55 0.025 0
1.525 0.05 0
1.55 0.05 0
1.55 0 0
1.575 0 0
1.55 0.025 0
1.575 0.025 0
1.575 0 0
1.6 0 0
1.575 0.025 0
1.6 0.025 0
1.55 0.025 0
1.575 0.025 0
1.55 0.05 0
1.575 0.05 0
1.575 0.025 0
1.6 0.025 0
1.575 0.05 0
1.6 0.05 0
1.6 0 0
1.625 0 0
1.6 0.025 0
1.625 0.025 0
1.625 0 0
1.65 0 0
1.625 0.025 0
1.65 0.025 0
1.6 0.025 0
1.625 0.025 0
1.6 0.05 0
1.625 0.05 0
1.625 0.025 0
1.65 0.025 0
1.625 0.05 0
1.65 0.05 0
1.65 0 0
1.675 0 0
1.65 0.025 0
1.675 0.025 0
1.675 0 0
1.7 0 0
1.675 0.025 0
1.7 0.025 0
1.65 0.025 0
1.675 0.025 0
1.65 0.05 0
1.675 0.05 0
1.675 0.025 0
1.7 0.025 0
1.675 0.05 0
1.7 0.05 0
1.7 0 0
1.725 0 0
1.7 0.025 0
1.725 0.025 0
1.725 0 0
1.75 0 0
1.725 0.025 0
1.75 0.025 0
1.7 0.025 0
1.725 0.025 0
1.7 0.05 0
1.725 0.05 0
1.725 0.025 0
1.75 0.025 0
1.725 0.05 0
1.75 0.05 0
1.75 0 0
1.775 0 0
1.75 0.025 0
1.775 0.025 0
1.775 0 0
1.8 0 0
1.775 0.025 0
1.8 0.025 0
1.75 0.025 0
1.775 0.025 0
1.75 0.05 0
1.775 0.05 0
1.775 0.025 0
1.8 0.025 0
1.775 0.05 0
1.8 0.05 0
1.8 0 0
1.825 0 0
1.8 0.025 0
1.825 0.025 0
1.825 0 0
1.85 0 0
1.825 0.025 0
1.85 0.025 0
1.8 0.025 0
1.825 0.025 0
1.8 0.05 0
1.825 0.05 0
1.825 0.025 0
1.85 0.025 0
1.825 0.05 0
1.85 0.05 0
1.85 0 0
1.875 0 0
1.85 0.025 0
1.875 0.025 0
1.875 0 0
1.9 0 0
1.875 0.025 0
1.9 0.025 0
1.85 0.025 0
1.875 0.025 0
1.85 0.05 0
1.875 0.05 0
1.875 0.025 0
1.9 0.025 0
1.875 0.05 0
1.9 0.05 0
1.9 0 0
1.925 0 0
1.9 0.025 0
1.925 0.025 0
1.925 0 0
1.95 0 0
1.925 0.025 0
1.95 0.025 0
1.9 0.025 0
1.925 0.025 0
1.9 0.05 0
1.925 0.05 0
1.925 0.025 0
1.95 0.025 0
1.925 0.05 0
1.95 0.05 0
1.95 0 0
1.975 0 0
1.95 0.025 0
1.975 0.025 0
1.975 0 0
2 0 0
1.975 0.025 0
2 0.025 0
1.95 0.025 0
1.975 0.025 0
1.95 0.05 0
1.975 0.05 0
1.975 0.025 0
2 0.025 0
1.975 0.05 0
2 0.05 0
0 0.05 0
0.025 0.05 0
0 0.075 0
0.025 0.075 0
0.025 0.05 0
0.05 0.05 0
0.025 0.075 0
0.05 0.075 0
0 0.075 0
0.025 0.075 0
0 0.1 0
0.025 0.1 0
0.025 0.075 0
0.05 0.075 0
0.025 0.1 0
0.05 0.1 0
0.05 0.05 0
0.075 0.05 0
0.05 0.075 0
0.075 0.075 0
0.075 0.05 0
0.1 0.05 0
0.075 0.075 0
0.1 0.075 0
0.05 0.075 0
0.075 0.075 0
0.05 0.1 0
0.075 0.1 0
0.075 0.075 0
0.1 0.075 0
0.075 0.1 0
0.1 0.1 0
0.3 0.05 0
0.325 0.05 0
0.3 0.075 0
0.325 0.075 0
0.325 0.05 0
0.35 0.05 0
0.325 0.075 0
0.35 0.075 0
0.3 0.075 0
0.325 0.075 0
0.3 0.1 0
0.325 0.1 0
0.325 0.075 0
0.35 0.075 0
0.325 0.1 0
0.35 0.1 0
0.35 0.05 0
0.375 0.05 0
0.35 0.075 0
0.375 0.075 0
0.375 0.05 0
0.4 0.05 0
0.375 0.075 0
0.4 0.075 0
0.35 0.075 0
0.375 0.075 0
0.35 0.1 0
0.375 0.1 0
0.375 0.075 0
0.4 0.075 0
0.375 0.1 0
0.4 0.1 0
0.4 0.05 0
0.425 0.05 0
0.4 0.075 0
0.425 0.075 0
0.425 0.05 0
0.45 0.05 0
0.425 0.075 0
0.45 0.075 0
0.4 0.075 0
0.425 0.075 0
0.4 0.1 0
0.425 0.1 0
0.425 0.075 0
0.45 0.075 0
0.425 0.1 0
0.45 0.1 0
0.45 0.05 0
0.475 0.05 0
0.45 0.075 0
0.475 0.075 0
0.475 0.05 0
0.5 0.05 0
0.475 0.075 0
0.5 0.075 0
0.45 0.075 0
0.475 0.075 0
0.45 0.1 0
0.475 0.1 0
0.475 0.075 0
0.5 0.075 0
0.475 0.1 0
0.5 0.1 0
0.5 0.05 0
0.525 0.05 0
0.5 0.075 0
0.525 0.075 0
0.525 0.05 0
0.55 0.05 0
0.525 0.075 0
0.55 0.075 0
0.5 0.075 0
0.525 0.075 0
0.5 0.1 0
0.525 0.1 0
0.525 0.075 0
0.55 0.075 0
0.525 0.1 0
0.55 0.1 0
0.55 0.05 0
0.575 0.05 0
0.55 0.075 0
0.575 0.075 0
0.575 0.05 0
0.6 0.05 0
0.575 0.075 0
0.6 0.075 0
0.55 0.075 0
0.575 0.075 0
0.55 0.1 0
0.575 0.1 0
0.575 0.075 0
0.6 0.075 0
0.575 0.1 0
0.6 0.1 0
0.6 0.05 0
0.625 0.05 0
0.6 0.075 0
0.625 0.075 0
0.625 0.05 0
0.65 0.05 0
0.625 0.075 0
0.65 0.075 0
0.6 0.075 0
0.625 0.075 0
0.6 0.1 0
0.625 0.1 0
0.625 0.075 0
0.65 0.075 0
0.625 0.1 0
0.65 0.1 0
0.65 0.05 0
0.675 0.05 0
0.65 0.075 0
0.675 0.075 0
0.675 0.05 0
0.7 0.05 0
0.675 0.075 0
0.7 0.075 0
0.65 0.075 0
0.675 0.075 0
0.65 0.1 0
0.675 0.1 0
0.675 0.075 0
0.7 0.075 0
0.675 0.1 0
0.7 0.1 0
0.7 0.05 0
0.725 0.05 0
0.7 0.075 0
0.725 0.075 0
0.725 0.05 0
0.75 0.05 0
0.725 0.075 0
0.75 0.075 0
0.7 0.075 0
0.725 0.075 0
0.7 0.1 0
0.725 0.1 0
0.725 0.075 0
0.75 0.075 0
0.725 0.1 0
0.75 0.1 0
0.75 0.05 0
0.775 0.05 0
0.75 0.075 0
0.775 0.075 0
0.775 0.05 0
0.8 0.05 0
0.775 0.075 0
0.8 0.075 0
0.75 0.075 0
0.775 0.075 0
0.75 0.1 0
0.775 0.1 0
0.775 0.075 0
0.8 0.075 0
0.775 0.1 0
0.8 0.1 0
0.8 0.05 0
0.825 0.05 0
0.8 0.075 0
0.825 0.075 0
0.825 0.05 0
0.85 0.05 0
0.825 0.075 0
0.85 0.075 0
0.8 0.075 0
0.825 0.075 0
0.8 0.1 0
0.825 0.1 0
0.825 0.075 0
0.85 0.075 0
0.825 0.1 0
0.85 0.1 0
0.85 0.05 0
0.875 0.05 0
0.85 0.075 0
0.875 0.075 0
0.875 0.05 0
0.9 0.05 0
0.875 0.075 0
0.9 0.075 0
0.85 0.075 0
0.875 0.075 0
0.85 0.1 0
0.875 0.1 0
0.875 0.075 0
0.9 0.075 0
0.875 0.1 0
0.9 0.1 0
0.9 0.05 0
0.925 0.05 0
0.9 0.075 0
0.925 0.075 0
0.925 0.05 0
0.95 0.05 0
0.925 0.075 0
0.95 0.075 0
0.9 0.075 0
0.925 0.075 0
0.9 0.1 0
0.925 0.1 0
0.925 0.075 0
0.95 0.075 0
0.925 0.1 0
0.95 0.1 0
0.95 0.05 0
0.975 0.05 0
0.95 0.075 0
0.975 0.075 0
0.975 0.05 0
1 0.05 0
0.975 0.075 0
1 0.075 0
0.95 0.075 0
0.975 0.075 0
0.95 0.1 0
0.975 0.1 0
0.975 0.075 0
1 0.075 0
0.975 0.1 0
1 0.1 0
1 0.05 0
1.025 0.05 0
1 0.075 0
1.025 0.075 0
1.025 0.05 0
1.05 0.05 0
1.025 0.075 0
1.05 0.075 0
1 0.075 0
1.025 0.075 0
1 0.1 0
1.025 0.1 0
1.025 0.075 0
1.05 0.075 0
1.025 0.1 0
1.05 0.1 0
1.05 0.05 0
1.075 0.05 0
1.05 0.075 0
1.075 0.075 0
1.075 0.05 0
1.1 0.05 0
1.075 0.075 0
1.1 0.075 0
1.05 0.075 0
1.075 0.075 0
1.05 0.1 0
1.075 0.1 0
1.075 0.075 0
1.1 0.075 0
1.075 0.1 0
1.1 0.1 0
1.1 0.05 0
1.125 0.05 0
1.1 0.075 0
1.125 0.075 0
1.125 0.05 0
1.15 0.05 0
1.125 0.075 0
1.15 0.075 0
1.1 0.075 0
1.125 0.075 0
1.1 0.1 0
1.125 0.1 0
1.125 0.075 0
1.15 0.075 0
1.125 0.1 0
1.15 0.1 0
1.15 0.05 0
1.175 0.05 0
1.15 0.075 0
1.175 0.075 0
1.175 0.05 0
1.2 0.05 0
1.175 0.075 0
1.2 0.075 0
1.15 0.075 0
1.175 0.075 0
1.15 0.1 0
1.175 0.1 0
1.175 0.075 0
1.2 0.075 0
1.175 0.1 0
1.2 0.1 0
1.2 0.05 0
1.225 0.05 0
1.2 0.075 0
1.225 0.075 0
1.225 0.05 0
1.25 0.05 0
1.225 0.075 0
1.25 0.075 0
1.2 0.075 0
1.225 0.075 0
1.2 0.1 0
1.225 0.1 0
1.225 0.075 0
[...]
POINT_DATA 11912
SCALARS x_displacement double 1
LOOKUP_TABLE default
0 -1.4727 0 -0.856929 -1.4727 -2.56918 -0.856929 -1.75072 -2.56918 -3.46598 -1.75072 -2.52881 -3.46598 -4.23013 -2.52881 -3.21846 -4.23013 -4.90691 -3.21846 -3.83432 -4.90691 -5.53852 -3.83432 -4.39417 -5.53852 -6.16171 -4.39417 -4.93002 -6.16171 -6.79734 -4.93002 -5.46182 -6.79734 -7.43101 -5.46182 -6.01099 -7.43101 -8.03979 -6.01099 -6.57475 -8.03979 -8.61838 -6.57475 -7.14527 -8.61838 -9.1846 -7.14527 -7.7071 -9.1846 -9.75234 -7.7071 -8.25791 -9.75234 -10.3266 -8.25791 -8.79258 -10.3266 -10.9005 -8.79258 -9.31537 -10.9005 -11.465 -9.31537 -9.83083 -11.465 -12.0136 -9.83083 -10.3428 -12.0136 -12.5448 -10.3428 -10.8528 -12.5448 -13.0586 -10.8528 -11.3611 -13.0586 -13.5556 -11.3611 -11.8665 -13.5556 -14.0444 -11.8665 -12.364 -14.0444 -14.5484 -12.364 -12.8473 -14.5484 -15.0945 -12.8473 -13.3158 -15.0945 -15.6678 -13.3158 -13.7698 -15.6678 -16.1776 -13.7698 -14.193 -16.1776 -16.5486 -14.193 -14.5802 -1.75072 -2.52881 -1.20115 -1.80966 -2.52881 -3.21846 -1.80966 -2.37353 -3.21846 -3.83432 -2.37353 -2.88565 -3.83432 -4.39417 -2.88565 -3.33575 -2.37353 -2.88565 -1.64358 -2.06141 -2.88565 -3.33575 -2.06141 -2.434 -1.05489 -1.17829 -0.019036 -0.017867 -1.17829 -1.24068 -0.017867 -0.0174847 -1.3567 -1.36396 -0.0151063 -0.0155782 -2.07577 -2.33831 -0.0163036 -0.0163709 -2.33831 -2.41265 -0.0163709 -0.0164141 -0.233109 -0.140045 0.3376 0.480643 -0.019036 -0.017867 1.01808 1.14292 -0.017867 -0.0174847 1.14292 1.20601 -0.0163036 -0.0163709 2.04299 2.30547 -0.0163709 -0.0164141 2.30547 2.37971 1.63289 2.0516 2.36878 2.88058 2.0516 2.42475 2.88058 3.33042 1.19712 1.80523 1.75301 2.53124 1.80523 2.36878 2.53124 3.22013 2.36878 2.88058 3.22013 3.8345 2.88058 3.33042 3.8345 4.39246 0 0.858309 0 1.48081 0.858309 1.75301 1.48081 2.58059 1.75301 2.53124 2.58059 3.47756 2.53124 3.22013 3.47756 4.24001 3.22013 3.8345 4.24001 4.91369 3.8345 4.39246 4.91369 5.541 4.39246 4.9259 5.541 6.15869 4.9259 5.45454 6.15869 6.78785 5.45454 5.99927 6.78785 7.4152 5.99927 6.55827 7.4152 8.01895 6.55827 7.12356 8.01895 8.59392 7.12356 7.68057 8.59392 9.1576 7.68057 8.22729 9.1576 9.72337 8.22729 8.759 9.72337 10.2948 8.759 9.2801 10.2948 10.865 9.2801 9.79468 10.865 11.4258 9.79468 10.3061 11.4258 11.9717 10.3061 10.8157 11.9717 12.5013 10.8157 11.3237 12.5013 13.0146 11.3237 11.8291 13.0146 13.5122 11.8291 12.3269 13.5122 14.0022 12.3269 12.8106 14.0022 14.5075 12.8106 13.2798 14.5075 15.0549 13.2798 13.7346 15.0549 15.6297 13.7346 14.1582 15.6297 16.1405 14.1582 14.5455 16.1405 16.5118 -16.5486 -16.7084 -15.5644 -15.7191 -16.7084 -16.8374 -15.7191 -15.8783 -15.5644 -15.7191 -14.5802 -14.7571 -15.7191 -15.8783 -14.7571 -14.908 -16.8374 -16.9529 -15.8783 -16.0337 -16.9529 -16.9798 -16.0337 -16.1761 -15.8783 -16.0337 -14.908 -15.0405 -16.0337 -16.1761 -15.0405 -15.1765 -16.9798 -17.0764 -16.1761 -16.2864 -17.0764 -17.5921 -16.2864 -16.3325 -16.1761 -16.2864 -15.1765 -15.3227 -16.2864 -16.3325 -15.3227 -15.4079 -17.5921 -17.9031 -16.3325 -16.6105 -17.9031 -18.15 -16.6105 -16.8609 -16.3325 -16.6105 -15.4079 -15.4319 -16.6105 -16.8609 -15.4319 -15.5563 -18.15 -18.3725 -16.8609 -17.0813 -18.3725 -18.5683 -17.0813 -17.295 -16.8609 -17.0813 -15.5563 -15.8514 -17.0813 -17.295 -15.8514 -16.0719 -18.5683 -18.7486 -17.295 -17.486 -18.7486 -18.9107 -17.486 -17.6569 -17.295 -17.486 -16.0719 -16.2656 -17.486 -17.6569 -16.2656 -16.4462 -18.9107 -19.0541 -17.6569 -17.8099 -19.0541 -19.179 -17.8099 -17.9447 -17.6569 -17.8099 -16.4462 -16.6067 -17.8099 -17.9447 -16.6067 -16.7498 -19.179 -19.2856 -17.9447 -18.0622 -19.2856 -19.3744 -18.0622 -18.1631 -17.9447 -18.0622 -16.7498 -16.8772 -18.0622 -18.1631 -16.8772 -16.989 -19.3744 -19.4461 -18.1631 -18.2478 -19.4461 -19.5009 -18.2478 -18.3168 -18.1631 -18.2478 -16.989 -17.0854 -18.2478 -18.3168 -17.0854 -17.1665 -19.5009 -19.5399 -18.3168 -18.371 -19.5399 -19.5644 -18.371 -18.4116 -18.3168 -18.371 -17.1665 -17.2332 -18.371 -18.4116 -17.2332 -17.2866 -19.5644 -19.5761 -18.4116 -18.44 -19.5761 -19.5773 -18.44 -18.458 -18.4116 -18.44 -17.2866 -17.3277 -18.44 -18.458 -17.3277 -17.3577 -19.5773 -19.5711 -18.458 -18.4678 -19.5711 -19.5605 -18.4678 -18.4715 -18.458 -18.4678 -17.3577 -17.3782 -18.4678 -18.4715 -17.3782 -17.3909 -19.5605 -19.549 -18.4715 -18.4715 -19.549 -19.54 -18.4715 -18.47 -18.4715 -18.4715 -17.3909 -17.3976 -18.4715 -18.47 -17.3976 -17.4006 -19.54 -19.5354 -18.47 -18.4688 -19.5354 -19.5344 -18.4688 -18.4688 -18.47 -18.4688 -17.4006 -17.4018 -18.4688 -18.4688 -17.4018 -17.4033 0 -0.428465 0 -0.35381 -0.428465 -0.856929 -0.35381 -0.723224 0 -0.35381 0 -0.280597 -0.35381 -0.723224 -0.280597 -0.595661 -0.856929 -1.30382 -0.723224 -1.09423 -1.30382 -1.75072 -1.09423 -1.47593 -0.723224 -1.09423 -0.595661 -0.904236 -1.09423 -1.47593 -0.904236 -1.20115 -4.39417 -4.6621 -3.86496 -4.09153 -4.6621 -4.93002 -4.09153 -4.31694 -3.86496 -4.09153 -3.33575 -3.54375 -4.09153 -4.31694 -3.54375 -3.72252 -4.93002 -5.19592 -4.31694 -4.54701 -5.19592 -5.46182 -4.54701 -4.78823 -4.31694 -4.54701 -3.72252 -3.89887 -4.54701 -4.78823 -3.89887 -4.10202 -5.46182 -5.7364 -4.78823 -5.03335 -5.7364 -6.01099 -5.03335 -5.28538 -4.78823 -5.03335 -4.10202 -4.31963 -5.03335 -5.28538 -4.31963 -4.53496 -6.01099 -6.29287 -5.28538 -5.55745 -6.29287 -6.57475 -5.55745 -5.84239 -5.28538 -5.55745 -4.53496 -4.7933 -5.55745 -5.84239 -4.7933 -5.1024 -6.57475 -6.86001 -5.84239 -6.13153 -6.86001 -7.14527 -6.13153 -6.40941 -5.84239 -6.13153 -5.1024 -5.3984 -6.13153 -6.40941 -5.3984 -5.66508 -7.14527 -7.42619 -6.40941 -6.70023 -7.42619 -7.7071 -6.70023 -6.98148 -6.40941 -6.70023 -5.66508 -5.98223 -6.70023 -6.98148 -5.98223 -6.27765 -7.7071 -7.98251 -6.98148 -7.25308 -7.98251 -8.25791 -7.25308 -7.52205 -6.98148 -7.25308 -6.27765 -6.53269 -7.25308 -7.52205 -6.53269 -6.79526 -8.25791 -8.52525 -7.52205 -7.77987 -8.52525 -8.79258 -7.77987 -8.03446 -7.52205 -7.77987 -6.79526 -7.04261 -7.77987 -8.03446 -7.04261 -7.28232 -8.79258 -9.05398 -8.03446 -8.2828 -9.05398 -9.31537 -8.2828 -8.5278 -8.03446 -8.2828 -7.28232 -7.5146 -8.2828 -8.5278 -7.5146 -7.7393 -9.31537 -9.5731 -8.5278 -8.77239 -9.5731 -9.83083 -8.77239 -9.0175 -8.5278 -8.77239 -7.7393 -7.96827 -8.77239 -9.0175 -7.96827 -8.20106 -9.83083 -10.0868 -9.0175 -9.26371 -10.0868 -10.3428 -9.26371 -9.51136 -9.0175 -9.26371 -8.20106 -8.43723 -9.26371 -9.51136 -8.43723 -8.6767 -10.3428 -10.5978 -9.51136 -9.76029 -10.5978 -10.8528 -9.76029 -10.0108 -9.51136 -9.76029 -8.6767 -8.91946 -9.76029 -10.0108 -8.91946 -9.16549 -10.8528 -11.107 -10.0108 -10.2626 -11.107 -11.3611 -10.2626 -10.5159 -10.0108 -10.2626 -9.16549 -9.41479 -10.2626 -10.5159 -9.41479 -9.66734 -11.3611 -11.6138 -10.5159 -10.7703 -11.6138 -11.8665 -10.7703 -11.0252 -10.5159 -10.7703 -9.66734 -9.92314 -10.7703 -11.0252 -9.92314 -10.1822 -11.8665 -12.1153 -11.0252 -11.279 -12.1153 -12.364 -11.279 -11.5283 -11.0252 -11.279 -10.1822 -10.4438 -11.279 -11.5283 -10.4438 -10.7051 -12.364 -12.6057 -11.5283 -11.7718 -12.6057 -12.8473 -11.7718 -12.0051 -11.5283 -11.7718 -10.7051 -10.9589 -11.7718 -12.0051 -10.9589 -11.196 -12.8473 -13.0815 -12.0051 -12.2303 -13.0815 -13.3158 -12.2303 -12.4448 -12.0051 -12.2303 -11.196 -11.4159 -12.2303 -12.4448 -11.4159 -11.6225 -13.3158 -13.5428 -12.4448 -12.6573 -13.5428 -13.7698 -12.6573 -12.8619 -12.4448 -12.6573 -11.6225 -11.8113 -12.6573 -12.8619 -11.8113 -11.986 -13.7698 -13.9814 -12.8619 -13.0615 -13.9814 -14.193 -13.0615 -13.2531 -12.8619 -13.0615 -11.986 -12.1515 -13.0615 -13.2531 -12.1515 -12.3136 -14.193 -14.3866 -13.2531 -13.4363 -14.3866 -14.5802 -13.4363 -13.6064 -13.2531 -13.4363 -12.3136 -12.4722 -13.4363 -13.6064 -12.4722 -12.6202 -14.5802 -14.7571 -13.6064 -13.7589 -14.7571 -14.908 -13.7589 -13.8997 -13.6064 -13.7589 -12.6202 -12.7565 -13.7589 -13.8997 -12.7565 -12.8863 -14.908 -15.0405 -13.8997 -14.0348 -15.0405 -15.1765 -14.0348 -14.1677 -13.8997 -14.0348 -12.8863 -13.0134 -14.0348 -14.1677 -13.0134 -13.1418 -15.1765 -15.3227 -14.1677 -14.287 -15.3227 -15.4079 -14.287 -14.4141 -14.1677 -14.287 -13.1418 -13.2703 -14.287 -14.4141 -13.2703 -13.4 -15.4079 -15.4319 -14.4141 -14.5596 -15.4319 -15.5563 -14.5596 -14.6541 -14.4141 -14.5596 -13.4 -13.5357 -14.5596 -14.6541 -13.5357 -13.6823 -15.5563 -15.8514 -14.6541 -14.6753 -15.8514 -16.0719 -14.6753 -14.8933 -14.6541 -14.6753 -13.6823 -13.7765 -14.6753 -14.8933 -13.7765 -13.8098 -16.0719 -16.2656 -14.8933 -15.0925 -16.2656 -16.4462 -15.0925 -15.2753 -14.8933 -15.0925 -13.8098 -13.9216 -15.0925 -15.2753 -13.9216 -14.1453 -16.4462 -16.6067 -15.2753 -15.4419 -16.6067 -16.7498 -15.4419 -15.5921 -15.2753 -15.4419 -14.1453 -14.3147 -15.4419 -15.5921 -14.3147 -14.4653 -16.7498 -16.8772 -15.5921 -15.7282 -16.8772 -16.989 -15.7282 -15.8507 -15.5921 -15.7282 -14.4653 -14.6166 -15.7282 -15.8507 -14.6166 -14.7469 -16.989 -17.0854 -15.8507 -15.9569 -17.0854 -17.1665 -15.9569 -16.048 -15.8507 -15.9569 -14.7469 -14.86 -15.9569 -16.048 -14.86 -14.9598 -17.1665 -17.2332 -16.048 -16.1252 -17.2332 -17.2866 -16.1252 -16.1888 -16.048 -16.1252 -14.9598 -15.0459 -16.1252 -16.1888 -15.0459 -15.1181 -17.2866 -17.3277 -16.1888 -16.2396 -17.3277 -17.3577 -16.2396 -16.2783 -16.1888 -16.2396 -15.1181 -15.1766 -16.2396 -16.2783 -15.1766 -15.2219 -17.3577 -17.3782 -16.2783 -16.306 -17.3782 -17.3909 -16.306 -16.3243 -16.2783 -16.306 -15.2219 -15.2548 -16.306 -16.3243 -15.2548 -15.2765 -17.3909 -17.3976 -16.3243 -16.3349 -17.3976 -17.4006 -16.3349 -16.3399 -16.3243 -16.3349 -15.2765 -15.289 -16.3349 -16.3399 -15.289 -15.2945 -17.4006 -17.4018 -16.3399 -16.3421 -17.4018 -17.4033 -16.3421 -16.3445 -16.3399 -16.3421 -15.2945 -15.2965 -16.3421 -16.3445 -15.2965 -15.2988 0 -0.280597 0 -0.224199 -0.280597 -0.595661 -0.224199 -0.473784 0 -0.224199 0 -0.134371 -0.224199 -0.473784 -0.134371 -0.290945 -0.595661 -0.904236 -0.473784 -0.710332 -0.904236 -1.20115 -0.710332 -0.974112 -0.473784 -0.710332 -0.290945 -0.511107 -0.710332 -0.974112 -0.511107 -0.767355 -1.20115 -1.50541 -0.974112 -1.24172 -1.50541 -1.80966 -1.24172 -1.49905 -0.974112 -1.24172 -0.767355 -0.984558 -1.24172 -1.49905 -0.984558 -1.20545 -1.80966 -2.0916 -1.49905 -1.75499 -2.0916 -2.37353 -1.75499 -2.00856 -1.49905 -1.75499 -1.20545 -1.43036 -1.75499 -2.00856 -1.43036 -1.64358 -3.33575 -3.54375 -2.88487 -3.04867 -3.54375 -3.72252 -3.04867 -3.19447 -2.88487 -3.04867 -2.434 -2.60453 -3.04867 -3.19447 -2.60453 -2.75199 -3.72252 -3.89887 -3.19447 -3.31508 -3.89887 -4.10202 -3.31508 -3.43889 -3.19447 -3.31508 -2.75199 -2.87855 -3.31508 -3.43889 -2.87855 -3.00493 -4.10202 -4.31963 -3.43889 -3.60601 -4.31963 -4.53496 -3.60601 -3.81344 -3.43889 -3.60601 -3.00493 -3.14058 -3.60601 -3.81344 -3.14058 -3.28196 -4.53496 -4.7933 -3.81344 -4.04177 -4.7933 -5.1024 -4.04177 -4.3099 -3.81344 -4.04177 -3.28196 -3.4343 -4.04177 -4.3099 -3.4343 -3.55123 -5.1024 -5.3984 -4.3099 -4.60657 -5.3984 -5.66508 -4.60657 -4.91709 -4.3099 -4.60657 -3.55123 -3.72519 -4.60657 -4.91709 -3.72519 -4.06312 -5.66508 -5.98223 -4.91709 -5.25956 -5.98223 -6.27765 -5.25956 -5.57139 -4.91709 -5.25956 -4.06312 -4.5964 -5.25956 -5.57139 -4.5964 -4.86179 -6.27765 -6.53269 -5.57139 -5.81346 -6.53269 -6.79526 -5.81346 -6.06036 -5.57139 -5.81346 -4.86179 -5.06148 -5.81346 -6.06036 -5.06148 -5.34892 -6.79526 -7.04261 -6.06036 -6.30283 -7.04261 -7.28232 -6.30283 -6.52343 -6.06036 -6.30283 -5.34892 -5.538 -6.30283 -6.52343 -5.538 -5.7695 -7.28232 -7.5146 -6.52343 -6.74179 -7.5146 -7.7393 -6.74179 -6.94696 -6.52343 -6.74179 -5.7695 -5.96106 -6.74179 -6.94696 -5.96106 -6.15334 -7.7393 -7.96827 -6.94696 -7.16096 -7.96827 -8.20106 -7.16096 -7.38157 -6.94696 -7.16096 -6.15334 -6.35336 -7.16096 -7.38157 -6.35336 -6.56163 -8.20106 -8.43723 -7.38157 -7.60774 -8.43723 -8.6767 -7.60774 -7.83914 -7.38157 -7.60774 -6.56163 -6.77783 -7.60774 -7.83914 -6.77783 -7.00117 -8.6767 -8.91946 -7.83914 -8.07567 -8.91946 -9.16549 -8.07567 -8.31731 -7.83914 -8.07567 -7.00117 -7.23149 -8.07567 -8.31731 -7.23149 -7.46872 -9.16549 -9.41479 -8.31731 -8.564 -9.41479 -9.66734 -8.564 -8.81573 -8.31731 -8.564 -7.46872 -7.71279 -8.564 -8.81573 -7.71279 -7.96368 -9.66734 -9.92314 -8.81573 -9.07275 -9.92314 -10.1822 -9.07275 -9.33644 -8.81573 -9.07275 -7.96368 -8.22192 -9.07275 -9.33644 -8.22192 -8.49103 -10.1822 -10.4438 -9.33644 -9.6119 -10.4438 -10.7051 -9.6119 -9.90516 -9.33644 -9.6119 -8.49103 -8.78679 -9.6119 -9.90516 -8.78679 -9.14815 -10.7051 -10.9589 -9.90516 -10.1899 -10.9589 -11.196 -10.1899 -10.4381 -9.90516 -10.1899 -9.14815 -9.47687 -10.1899 -10.4381 -9.47687 -9.80036 -11.196 -11.4159 -10.4381 -10.6745 -11.4159 -11.6225 -10.6745 -10.8742 -10.4381 -10.6745 -9.80036 -10.0617 -10.6745 -10.8742 -10.0617 -10.1854 -11.6225 -11.8113 -10.8742 -11.0193 -11.8113 -11.986 -11.0193 -11.1384 -10.8742 -11.0193 -10.1854 -10.2589 -11.0193 -11.1384 -10.2589 -10.3136 -11.986 -12.1515 -11.1384 -11.2491 -12.1515 -12.3136 -11.2491 -11.3598 -11.1384 -11.2491 -10.3136 -10.3597 -11.2491 -11.3598 -10.3597 -10.3996 -12.3136 -12.4722 -11.3598 -11.4745 -12.4722 -12.6202 -11.4745 -11.5992 -11.3598 -11.4745 -10.3996 -10.443 -11.4745 -11.5992 -10.443 -10.5223 -12.6202 -12.7565 -11.5992 -11.7258 -12.7565 -12.8863 -11.7258 -11.8506 -11.5992 -11.7258 -10.5223 -10.6425 -11.7258 -11.8506 -10.6425 -10.785 -12.8863 -13.0134 -11.8506 -11.9791 -13.0134 -13.1418 -11.9791 -12.1115 -11.8506 -11.9791 -10.785 -10.9314 -11.9791 -12.1115 -10.9314 -11.0735 -13.1418 -13.2703 -12.1115 -12.245 -13.2703 -13.4 -12.245 -12.3818 -12.1115 -12.245 -11.0735 -11.2152 -12.245 -12.3818 -11.2152 -11.357 -13.4 -13.5357 -12.3818 -12.5216 -13.5357 -13.6823 -12.5216 -12.651 -12.3818 -12.5216 -11.357 -11.4999 -12.5216 -12.651 -11.4999 -11.6434 -13.6823 -13.7765 -12.651 -12.7925 -13.7765 -13.8098 -12.7925 -12.9622 -12.651 -12.7925 -11.6434 -11.7905 -12.7925 -12.9622 -11.7905 -11.9329 -13.8098 -13.9216 -12.9622 -13.0552 -13.9216 -14.1453 -13.0552 -13.0332 -12.9622 -13.0552 -11.9329 -12.0694 -13.0552 -13.0332 -12.0694 -12.1819 -14.1453 -14.3147 -13.0332 -13.1989 -14.3147 -14.4653 -13.1989 -13.3876 -13.0332 -13.1989 -12.1819 -12.2888 -13.1989 -13.3876 -12.2888 -12.3296 -14.4653 -14.6166 -13.3876 -13.5433 -14.6166 -14.7469 -13.5433 -13.6718 -13.3876 -13.5433 -12.3296 -12.486 -13.5433 -13.6718 -12.486 -12.6213 -14.7469 -14.86 -13.6718 -13.7923 -14.86 -14.9598 -13.7923 -13.9007 -13.6718 -13.7923 -12.6213 -12.7521 -13.7923 -13.9007 -12.7521 -12.871 -14.9598 -15.0459 -13.9007 -13.995 -15.0459 -15.1181 -13.995 -14.0747 -13.9007 -13.995 -12.871 -12.9722 -13.995 -14.0747 -12.9722 -13.0583 -15.1181 -15.1766 -14.0747 -14.1398 -15.1766 -15.2219 -14.1398 -14.1905 -14.0747 -14.1398 -13.0583 -13.1302 -14.1398 -14.1905 -13.1302 -13.1858 -15.2219 -15.2548 -14.1905 -14.2273 -15.2548 -15.2765 -14.2273 -14.2514 -14.1905 -14.2273 -13.1858 -13.226 -14.2273 -14.2514 -13.226 -13.2521 -15.2765 -15.289 -14.2514 -14.2646 -15.289 -15.2945 -14.2646 -14.2696 -14.2514 -14.2646 -13.2521 -13.2657 -14.2646 -14.2696 -13.2657 -13.2693 -15.2945 -15.2965 -14.2696 -14.2702 -15.2965 -15.2988 -14.2702 -14.2715 -14.2696 -14.2702 -13.2693 -13.2677 -14.2702 -14.2715 -13.2677 -13.2668 0 -0.134371 0 -0.0919333 -0.134371 -0.290945 -0.0919333 -0.0790142 0 -0.0919333 0 -0.133567 -0.0919333 -0.0790142 -0.133567 -0.29967 -0.290945 -0.511107 -0.0790142 -0.324798 -0.511107 -0.767355 -0.324798 -0.530491 -0.0790142 -0.324798 -0.29967 -0.515242 -0.324798 -0.530491 -0.515242 -0.326964 -0.767355 -0.984558 -0.530491 -0.728171 -0.984558 -1.20545 -0.728171 -0.929443 -0.530491 -0.728171 -0.326964 -0.460104 -0.728171 -0.929443 -0.460104 -0.624193 -1.20545 -1.43036 -0.929443 -1.11262 -1.43036 -1.64358 -1.11262 -1.3027 -0.929443 -1.11262 -0.624193 -0.795717 -1.11262 -1.3027 -0.795717 -0.977346 -1.64358 -1.8525 -1.3027 -1.49812 -1.8525 -2.06141 -1.49812 -1.6828 -1.3027 -1.49812 -0.977346 -1.14324 -1.49812 -1.6828 -1.14324 -1.31606 -2.06141 -2.2477 -1.6828 -1.8638 -2.2477 -2.434 -1.8638 -2.03683 -1.6828 -1.8638 -1.31606 -1.49307 -1.8638 -2.03683 -1.49307 -1.66141 -2.434 -2.60453 -2.03683 -2.20232 -2.60453 -2.75199 -2.20232 -2.3609 -2.03683 -2.20232 -1.66141 -1.82676 -2.20232 -2.3609 -1.82676 -1.99155 -2.75199 -2.87855 -2.3609 -2.51402 -2.87855 -3.00493 -2.51402 -2.66787 -2.3609 -2.51402 -1.99155 -2.1548 -2.51402 -2.66787 -2.1548 -2.31652 -3.00493 -3.14058 -2.66787 -2.81848 -3.14058 -3.28196 -2.81848 -2.96769 -2.66787 -2.81848 -2.31652 -2.47911 -2.81848 -2.96769 -2.47911 -2.64877 -3.28196 -3.4343 -2.96769 -3.12833 -3.4343 -3.55123 -3.12833 -3.29169 -2.96769 -3.12833 -2.64877 -2.81711 -3.12833 -3.29169 -2.81711 -2.98409 -3.55123 -3.72519 -3.29169 -3.47894 -3.72519 -4.06312 -3.47894 -3.64901 -3.29169 -3.47894 -2.98409 -3.17033 -3.47894 -3.64901 -3.17033 -3.35677 -4.06312 -4.5964 -3.64901 -3.53403 -4.5964 -4.86179 -3.53403 -3.7407 -3.64901 -3.53403 -3.35677 -3.54726 -3.53403 -3.7407 -3.54726 -3.73855 -4.86179 -5.06148 -3.7407 -4.22854 -5.06148 -5.34892 -4.22854 -4.60042 -3.7407 -4.22854 -3.73855 -3.65055 -4.22854 -4.60042 -3.65055 -3.63319 -5.34892 -5.538 -4.60042 -4.85327 -5.538 -5.7695 -4.85327 -5.09047 -4.60042 -4.85327 -3.63319 -4.10498 -4.85327 -5.09047 -4.10498 -4.47956 -5.7695 -5.96106 -5.09047 -5.35995 -5.96106 -6.15334 -5.35995 -5.60416 -5.09047 -5.35995 -4.47956 -4.75439 -5.35995 -5.60416 -4.75439 -5.02693 -6.15334 -6.35336 -5.60416 -5.84062 -6.35336 -6.56163 -5.84062 -6.07387 -5.60416 -5.84062 -5.02693 -5.28019 -5.84062 -6.07387 -5.28019 -5.54527 -6.56163 -6.77783 -6.07387 -6.31401 -6.77783 -7.00117 -6.31401 -6.56395 -6.07387 -6.31401 -5.54527 -5.79863 -6.31401 -6.56395 -5.79863 -6.07581 -7.00117 -7.23149 -6.56395 -6.82682 -7.23149 -7.46872 -6.82682 -7.09841 -6.56395 -6.82682 -6.07581 -6.36944 -6.82682 -7.09841 -6.36944 -6.66751 -7.46872 -7.71279 -7.09841 -7.37714 -7.71279 -7.96368 -7.37714 -7.66827 -7.09841 -7.37714 -6.66751 -6.96667 -7.37714 -7.66827 -6.96667 -7.26809 -7.96368 -8.22192 -7.66827 -7.9926 -8.22192 -8.49103 -7.9926 -8.40141 -7.66827 -7.9926 -7.26809 -7.56932 -7.9926 -8.40141 -7.56932 -7.84401 -8.49103 -8.78679 -8.40141 -9.01825 -8.78679 -9.14815 -9.01825 -9.19965 -8.40141 -9.01825 -7.84401 -8.10062 -9.01825 -9.19965 -8.10062 -8.40641 -9.14815 -9.47687 -9.19965 -9.22905 -9.47687 -9.80036 -9.22905 -9.36366 -9.19965 -9.22905 -8.40641 -8.6731 -9.22905 -9.36366 -8.6731 -8.67926 -9.80036 -10.0617 -9.36366 -9.43407 -10.0617 -10.1854 -9.43407 -9.47656 -9.36366 -9.43407 -8.67926 -8.70538 -9.43407 -9.47656 -8.70538 -8.71749 -10.1854 -10.2589 -9.47656 -9.49699 -10.2589 -10.3136 -9.49699 -9.50166 -9.47656 -9.49699 -8.71749 -8.71324 -9.49699 -9.50166 -8.71324 -8.68587 -10.3136 -10.3597 -9.50166 -9.49083 -10.3597 -10.3996 -9.49083 -9.46635 -9.50166 -9.49083 -8.68587 -8.63869 -9.49083 -9.46635 -8.63869 -8.57175 -10.3996 -10.443 -9.46635 -9.42208 -10.443 -10.5223 -9.42208 -9.39283 -9.46635 -9.42208 -8.57175 -8.48934 -9.42208 -9.39283 -8.48934 -8.30789 -10.5223 -10.6425 -9.39283 -9.53349 -10.6425 -10.785 -9.53349 -9.71648 -9.39283 -9.53349 -8.30789 -8.43117 -9.53349 -9.71648 -8.43117 -8.63457 -10.785 -10.9314 -9.71648 -9.86731 -10.9314 -11.0735 -9.86731 -10.0239 -9.71648 -9.86731 -8.63457 -8.81012 -9.86731 -10.0239 -8.81012 -8.98908 -11.0735 -11.2152 -10.0239 -10.1829 -11.2152 -11.357 -10.1829 -10.3333 -10.0239 -10.1829 -8.98908 -9.15032 -10.1829 -10.3333 -9.15032 -9.30894 -11.357 -11.4999 -10.3333 -10.4817 -11.4999 -11.6434 -10.4817 -10.6295 -10.3333 -10.4817 -9.30894 -9.4674 -10.4817 -10.6295 -9.4674 -9.61954 -11.6434 -11.7905 -10.6295 -10.7796 -11.7905 -11.9329 -10.7796 -10.9235 -10.6295 -10.7796 -9.61954 -9.76876 -10.7796 -10.9235 -9.76876 -9.91573 -11.9329 -12.0694 -10.9235 -11.0547 -12.0694 -12.1819 -11.0547 -11.2002 -10.9235 -11.0547 -9.91573 -10.0637 -11.0547 -11.2002 -10.0637 -10.2142 -12.1819 -12.2888 -11.2002 -11.3649 -12.2888 -12.3296 -11.3649 -11.453 -11.2002 -11.3649 -10.2142 -10.3516 -11.3649 -11.453 -10.3516 -10.4966 -12.3296 -12.486 -11.453 -11.4428 -12.486 -12.6213 -11.4428 -11.5892 -11.453 -11.4428 -10.4966 -10.6633 -11.4428 -11.5892 -10.6633 -10.7689 -12.6213 -12.7521 -11.5892 -11.7493 -12.7521 -12.871 -11.7493 -11.8715 -11.5892 -11.7493 -10.7689 -10.7546 -11.