# vtk DataFile Version 3.0
#This file was generated by the deal.II library on 2015/9/3 at 12: 1: 0
ASCII
DATASET UNSTRUCTURED_GRID

POINTS 3200 double
0 0 0
0.05 0 0
0 0.05 0
0.05 0.05 0
0.05 0 0
0.1 0 0
0.05 0.05 0
0.1 0.05 0
0.1 0 0
0.15 0 0
0.1 0.05 0
0.15 0.05 0
0.15 0 0
0.2 0 0
0.15 0.05 0
0.2 0.05 0
0.2 0 0
0.25 0 0
0.2 0.05 0
0.25 0.05 0
0.25 0 0
0.3 0 0
0.25 0.05 0
0.3 0.05 0
0.3 0 0
0.35 0 0
0.3 0.05 0
0.35 0.05 0
0.35 0 0
0.4 0 0
0.35 0.05 0
0.4 0.05 0
0.4 0 0
0.45 0 0
0.4 0.05 0
0.45 0.05 0
0.45 0 0
0.5 0 0
0.45 0.05 0
0.5 0.05 0
0.5 0 0
0.55 0 0
0.5 0.05 0
0.55 0.05 0
0.55 0 0
0.6 0 0
0.55 0.05 0
0.6 0.05 0
0.6 0 0
0.65 0 0
0.6 0.05 0
0.65 0.05 0
0.65 0 0
0.7 0 0
0.65 0.05 0
0.7 0.05 0
0.7 0 0
0.75 0 0
0.7 0.05 0
0.75 0.05 0
0.75 0 0
0.8 0 0
0.75 0.05 0
0.8 0.05 0
0.8 0 0
0.85 0 0
0.8 0.05 0
0.85 0.05 0
0.85 0 0
0.9 0 0
0.85 0.05 0
0.9 0.05 0
0.9 0 0
0.95 0 0
0.9 0.05 0
0.95 0.05 0
0.95 0 0
1 0 0
0.95 0.05 0
1 0.05 0
1 0 0
1.05 0 0
1 0.05 0
1.05 0.05 0
1.05 0 0
1.1 0 0
1.05 0.05 0
1.1 0.05 0
1.1 0 0
1.15 0 0
1.1 0.05 0
1.15 0.05 0
1.15 0 0
1.2 0 0
1.15 0.05 0
1.2 0.05 0
1.2 0 0
1.25 0 0
1.2 0.05 0
1.25 0.05 0
1.25 0 0
1.3 0 0
1.25 0.05 0
1.3 0.05 0
1.3 0 0
1.35 0 0
1.3 0.05 0
1.35 0.05 0
1.35 0 0
1.4 0 0
1.35 0.05 0
1.4 0.05 0
1.4 0 0
1.45 0 0
1.4 0.05 0
1.45 0.05 0
1.45 0 0
1.5 0 0
1.45 0.05 0
1.5 0.05 0
1.5 0 0
1.55 0 0
1.5 0.05 0
1.55 0.05 0
1.55 0 0
1.6 0 0
1.55 0.05 0
1.6 0.05 0
1.6 0 0
1.65 0 0
1.6 0.05 0
1.65 0.05 0
1.65 0 0
1.7 0 0
1.65 0.05 0
1.7 0.05 0
1.7 0 0
1.75 0 0
1.7 0.05 0
1.75 0.05 0
1.75 0 0
1.8 0 0
1.75 0.05 0
1.8 0.05 0
1.8 0 0
1.85 0 0
1.8 0.05 0
1.85 0.05 0
1.85 0 0
1.9 0 0
1.85 0.05 0
1.9 0.05 0
1.9 0 0
1.95 0 0
1.9 0.05 0
1.95 0.05 0
1.95 0 0
2 0 0
1.95 0.05 0
2 0.05 0
0 0.05 0
0.05 0.05 0
0 0.1 0
0.05 0.1 0
0.05 0.05 0
0.1 0.05 0
0.05 0.1 0
0.1 0.1 0
0.1 0.05 0
0.15 0.05 0
0.1 0.1 0
0.15 0.1 0
0.15 0.05 0
0.2 0.05 0
0.15 0.1 0
0.2 0.1 0
0.2 0.05 0
0.25 0.05 0
0.2 0.1 0
0.25 0.1 0
0.25 0.05 0
0.3 0.05 0
0.25 0.1 0
0.3 0.1 0
0.3 0.05 0
0.35 0.05 0
0.3 0.1 0
0.35 0.1 0
0.35 0.05 0
0.4 0.05 0
0.35 0.1 0
0.4 0.1 0
0.4 0.05 0
0.45 0.05 0
0.4 0.1 0
0.45 0.1 0
0.45 0.05 0
0.5 0.05 0
0.45 0.1 0
0.5 0.1 0
0.5 0.05 0
0.55 0.05 0
0.5 0.1 0
0.55 0.1 0
0.55 0.05 0
0.6 0.05 0
0.55 0.1 0
0.6 0.1 0
0.6 0.05 0
0.65 0.05 0
0.6 0.1 0
0.65 0.1 0
0.65 0.05 0
0.7 0.05 0
0.65 0.1 0
0.7 0.1 0
0.7 0.05 0
0.75 0.05 0
0.7 0.1 0
0.75 0.1 0
0.75 0.05 0
0.8 0.05 0
0.75 0.1 0
0.8 0.1 0
0.8 0.05 0
0.85 0.05 0
0.8 0.1 0
0.85 0.1 0
0.85 0.05 0
0.9 0.05 0
0.85 0.1 0
0.9 0.1 0
0.9 0.05 0
0.95 0.05 0
0.9 0.1 0
0.95 0.1 0
0.95 0.05 0
1 0.05 0
0.95 0.1 0
1 0.1 0
1 0.05 0
1.05 0.05 0
1 0.1 0
1.05 0.1 0
1.05 0.05 0
1.1 0.05 0
1.05 0.1 0
1.1 0.1 0
1.1 0.05 0
1.15 0.05 0
1.1 0.1 0
1.15 0.1 0
1.15 0.05 0
1.2 0.05 0
1.15 0.1 0
1.2 0.1 0
1.2 0.05 0
1.25 0.05 0
1.2 0.1 0
1.25 0.1 0
1.25 0.05 0
1.3 0.05 0
1.25 0.1 0
1.3 0.1 0
1.3 0.05 0
1.35 0.05 0
1.3 0.1 0
1.35 0.1 0
1.35 0.05 0
1.4 0.05 0
1.35 0.1 0
1.4 0.1 0
1.4 0.05 0
1.45 0.05 0
1.4 0.1 0
1.45 0.1 0
1.45 0.05 0
1.5 0.05 0
1.45 0.1 0
1.5 0.1 0
1.5 0.05 0
1.55 0.05 0
1.5 0.1 0
1.55 0.1 0
1.55 0.05 0
1.6 0.05 0
1.55 0.1 0
1.6 0.1 0
1.6 0.05 0
1.65 0.05 0
1.6 0.1 0
1.65 0.1 0
1.65 0.05 0
1.7 0.05 0
1.65 0.1 0
1.7 0.1 0
1.7 0.05 0
1.75 0.05 0
1.7 0.1 0
1.75 0.1 0
1.75 0.05 0
1.8 0.05 0
1.75 0.1 0
1.8 0.1 0
1.8 0.05 0
1.85 0.05 0
1.8 0.1 0
1.85 0.1 0
1.85 0.05 0
1.9 0.05 0
1.85 0.1 0
1.9 0.1 0
1.9 0.05 0
1.95 0.05 0
1.9 0.1 0
1.95 0.1 0
1.95 0.05 0
2 0.05 0
1.95 0.1 0
2 0.1 0
0 0.1 0
0.05 0.1 0
0 0.15 0
0.05 0.15 0
0.05 0.1 0
0.1 0.1 0
0.05 0.15 0
0.1 0.15 0
0.1 0.1 0
0.15 0.1 0
0.1 0.15 0
0.15 0.15 0
0.15 0.1 0
0.2 0.1 0
0.15 0.15 0
0.2 0.15 0
0.2 0.1 0
0.25 0.1 0
0.2 0.15 0
0.25 0.15 0
0.25 0.1 0
0.3 0.1 0
0.25 0.15 0
0.3 0.15 0
0.3 0.1 0
0.35 0.1 0
0.3 0.15 0
0.35 0.15 0
0.35 0.1 0
0.4 0.1 0
0.35 0.15 0
0.4 0.15 0
0.4 0.1 0
0.45 0.1 0
0.4 0.15 0
0.45 0.15 0
0.45 0.1 0
0.5 0.1 0
0.45 0.15 0
0.5 0.15 0
0.5 0.1 0
0.55 0.1 0
0.5 0.15 0
0.55 0.15 0
0.55 0.1 0
0.6 0.1 0
0.55 0.15 0
0.6 0.15 0
0.6 0.1 0
0.65 0.1 0
0.6 0.15 0
0.65 0.15 0
0.65 0.1 0
0.7 0.1 0
0.65 0.15 0
0.7 0.15 0
0.7 0.1 0
0.75 0.1 0
0.7 0.15 0
0.75 0.15 0
0.75 0.1 0
0.8 0.1 0
0.75 0.15 0
0.8 0.15 0
0.8 0.1 0
0.85 0.1 0
0.8 0.15 0
0.85 0.15 0
0.85 0.1 0
0.9 0.1 0
0.85 0.15 0
0.9 0.15 0
0.9 0.1 0
0.95 0.1 0
0.9 0.15 0
0.95 0.15 0
0.95 0.1 0
1 0.1 0
0.95 0.15 0
1 0.15 0
1 0.1 0
1.05 0.1 0
1 0.15 0
1.05 0.15 0
1.05 0.1 0
1.1 0.1 0
1.05 0.15 0
1.1 0.15 0
1.1 0.1 0
1.15 0.1 0
1.1 0.15 0
1.15 0.15 0
1.15 0.1 0
1.2 0.1 0
1.15 0.15 0
1.2 0.15 0
1.2 0.1 0
1.25 0.1 0
1.2 0.15 0
1.25 0.15 0
1.25 0.1 0
1.3 0.1 0
1.25 0.15 0
1.3 0.15 0
1.3 0.1 0
1.35 0.1 0
1.3 0.15 0
1.35 0.15 0
1.35 0.1 0
1.4 0.1 0
1.35 0.15 0
1.4 0.15 0
1.4 0.1 0
1.45 0.1 0
1.4 0.15 0
1.45 0.15 0
1.45 0.1 0
1.5 0.1 0
1.45 0.15 0
1.5 0.15 0
1.5 0.1 0
1.55 0.1 0
1.5 0.15 0
1.55 0.15 0
1.55 0.1 0
1.6 0.1 0
1.55 0.15 0
1.6 0.15 0
1.6 0.1 0
1.65 0.1 0
1.6 0.15 0
1.65 0.15 0
1.65 0.1 0
1.7 0.1 0
1.65 0.15 0
1.7 0.15 0
1.7 0.1 0
1.75 0.1 0
1.7 0.15 0
1.75 0.15 0
1.75 0.1 0
1.8 0.1 0
1.75 0.15 0
1.8 0.15 0
1.8 0.1 0
1.85 0.1 0
1.8 0.15 0
1.85 0.15 0
1.85 0.1 0
1.9 0.1 0
1.85 0.15 0
1.9 0.15 0
1.9 0.1 0
1.95 0.1 0
1.9 0.15 0
1.95 0.15 0
1.95 0.1 0
2 0.1 0
1.95 0.15 0
2 0.15 0
0 0.15 0
0.05 0.15 0
0 0.2 0
0.05 0.2 0
0.05 0.15 0
0.1 0.15 0
0.05 0.2 0
0.1 0.2 0
0.1 0.15 0
0.15 0.15 0
0.1 0.2 0
0.15 0.2 0
0.15 0.15 0
0.2 0.15 0
0.15 0.2 0
0.2 0.2 0
0.2 0.15 0
0.25 0.15 0
0.2 0.2 0
0.25 0.2 0
0.25 0.15 0
0.3 0.15 0
0.25 0.2 0
0.3 0.2 0
0.3 0.15 0
0.35 0.15 0
0.3 0.2 0
0.35 0.2 0
0.35 0.15 0
0.4 0.15 0
0.35 0.2 0
0.4 0.2 0
0.4 0.15 0
0.45 0.15 0
0.4 0.2 0
0.45 0.2 0
0.45 0.15 0
0.5 0.15 0
0.45 0.2 0
0.5 0.2 0
0.5 0.15 0
0.55 0.15 0
0.5 0.2 0
0.55 0.2 0
0.55 0.15 0
0.6 0.15 0
0.55 0.2 0
0.6 0.2 0
0.6 0.15 0
0.65 0.15 0
0.6 0.2 0
0.65 0.2 0
0.65 0.15 0
0.7 0.15 0
0.65 0.2 0
0.7 0.2 0
0.7 0.15 0
0.75 0.15 0
0.7 0.2 0
0.75 0.2 0
0.75 0.15 0
0.8 0.15 0
0.75 0.2 0
0.8 0.2 0
0.8 0.15 0
0.85 0.15 0
0.8 0.2 0
0.85 0.2 0
0.85 0.15 0
0.9 0.15 0
0.85 0.2 0
0.9 0.2 0
0.9 0.15 0
0.95 0.15 0
0.9 0.2 0
0.95 0.2 0
0.95 0.15 0
1 0.15 0
0.95 0.2 0
1 0.2 0
1 0.15 0
1.05 0.15 0
1 0.2 0
1.05 0.2 0
1.05 0.15 0
1.1 0.15 0
1.05 0.2 0
1.1 0.2 0
1.1 0.15 0
1.15 0.15 0
1.1 0.2 0
1.15 0.2 0
1.15 0.15 0
1.2 0.15 0
1.15 0.2 0
1.2 0.2 0
1.2 0.15 0
1.25 0.15 0
1.2 0.2 0
1.25 0.2 0
1.25 0.15 0
1.3 0.15 0
1.25 0.2 0
1.3 0.2 0
1.3 0.15 0
1.35 0.15 0
1.3 0.2 0
1.35 0.2 0
1.35 0.15 0
1.4 0.15 0
1.35 0.2 0
1.4 0.2 0
1.4 0.15 0
1.45 0.15 0
1.4 0.2 0
1.45 0.2 0
1.45 0.15 0
1.5 0.15 0
1.45 0.2 0
1.5 0.2 0
1.5 0.15 0
1.55 0.15 0
1.5 0.2 0
1.55 0.2 0
1.55 0.15 0
1.6 0.15 0
1.55 0.2 0
1.6 0.2 0
1.6 0.15 0
1.65 0.15 0
1.6 0.2 0
1.65 0.2 0
1.65 0.15 0
1.7 0.15 0
1.65 0.2 0
1.7 0.2 0
1.7 0.15 0
1.75 0.15 0
1.7 0.2 0
1.75 0.2 0
1.75 0.15 0
1.8 0.15 0
1.75 0.2 0
1.8 0.2 0
1.8 0.15 0
1.85 0.15 0
1.8 0.2 0
1.85 0.2 0
1.85 0.15 0
1.9 0.15 0
1.85 0.2 0
1.9 0.2 0
1.9 0.15 0
1.95 0.15 0
1.9 0.2 0
1.95 0.2 0
1.95 0.15 0
2 0.15 0
1.95 0.2 0
2 0.2 0
0 0.2 0
0.05 0.2 0
0 0.25 0
0.05 0.25 0
0.05 0.2 0
0.1 0.2 0
0.05 0.25 0
0.1 0.25 0
0.1 0.2 0
0.15 0.2 0
0.1 0.25 0
0.15 0.25 0
0.15 0.2 0
0.2 0.2 0
0.15 0.25 0
0.2 0.25 0
0.2 0.2 0
0.25 0.2 0
0.2 0.25 0
0.25 0.25 0
0.25 0.2 0
0.3 0.2 0
0.25 0.25 0
0.3 0.25 0
0.3 0.2 0
0.35 0.2 0
0.3 0.25 0
0.35 0.25 0
0.35 0.2 0
0.4 0.2 0
0.35 0.25 0
0.4 0.25 0
0.4 0.2 0
0.45 0.2 0
0.4 0.25 0
0.45 0.25 0
0.45 0.2 0
0.5 0.2 0
0.45 0.25 0
0.5 0.25 0
0.5 0.2 0
0.55 0.2 0
0.5 0.25 0
0.55 0.25 0
0.55 0.2 0
0.6 0.2 0
0.55 0.25 0
0.6 0.25 0
0.6 0.2 0
0.65 0.2 0
0.6 0.25 0
0.65 0.25 0
0.65 0.2 0
0.7 0.2 0
0.65 0.25 0
0.7 0.25 0
0.7 0.2 0
0.75 0.2 0
0.7 0.25 0
0.75 0.25 0
0.75 0.2 0
0.8 0.2 0
0.75 0.25 0
0.8 0.25 0
0.8 0.2 0
0.85 0.2 0
0.8 0.25 0
0.85 0.25 0
0.85 0.2 0
0.9 0.2 0
0.85 0.25 0
0.9 0.25 0
0.9 0.2 0
0.95 0.2 0
0.9 0.25 0
0.95 0.25 0
0.95 0.2 0
1 0.2 0
0.95 0.25 0
1 0.25 0
1 0.2 0
1.05 0.2 0
1 0.25 0
1.05 0.25 0
1.05 0.2 0
1.1 0.2 0
1.05 0.25 0
1.1 0.25 0
1.1 0.2 0
1.15 0.2 0
1.1 0.25 0
1.15 0.25 0
1.15 0.2 0
1.2 0.2 0
1.15 0.25 0
1.2 0.25 0
1.2 0.2 0
1.25 0.2 0
1.2 0.25 0
1.25 0.25 0
1.25 0.2 0
1.3 0.2 0
1.25 0.25 0
1.3 0.25 0
1.3 0.2 0
1.35 0.2 0
1.3 0.25 0
1.35 0.25 0
1.35 0.2 0
1.4 0.2 0
1.35 0.25 0
1.4 0.25 0
1.4 0.2 0
1.45 0.2 0
1.4 0.25 0
1.45 0.25 0
1.45 0.2 0
1.5 0.2 0
1.45 0.25 0
1.5 0.25 0
1.5 0.2 0
1.55 0.2 0
1.5 0.25 0
1.55 0.25 0
1.55 0.2 0
1.6 0.2 0
1.55 0.25 0
1.6 0.25 0
1.6 0.2 0
1.65 0.2 0
1.6 0.25 0
1.65 0.25 0
1.65 0.2 0
1.7 0.2 0
1.65 0.25 0
1.7 0.25 0
1.7 0.2 0
1.75 0.2 0
1.7 0.25 0
1.75 0.25 0
1.75 0.2 0
1.8 0.2 0
1.75 0.25 0
1.8 0.25 0
1.8 0.2 0
1.85 0.2 0
1.8 0.25 0
1.85 0.25 0
1.85 0.2 0
1.9 0.2 0
1.85 0.25 0
1.9 0.25 0
1.9 0.2 0
1.95 0.2 0
1.9 0.25 0
1.95 0.25 0
1.95 0.2 0
2 0.2 0
1.95 0.25 0
2 0.25 0
0 0.25 0
0.05 0.25 0
0 0.3 0
0.05 0.3 0
0.05 0.25 0
0.1 0.25 0
0.05 0.3 0
0.1 0.3 0
0.1 0.25 0
0.15 0.25 0
0.1 0.3 0
0.15 0.3 0
0.15 0.25 0
0.2 0.25 0
0.15 0.3 0
0.2 0.3 0
0.2 0.25 0
0.25 0.25 0
0.2 0.3 0
0.25 0.3 0
0.25 0.25 0
0.3 0.25 0
0.25 0.3 0
0.3 0.3 0
0.3 0.25 0
0.35 0.25 0
0.3 0.3 0
0.35 0.3 0
0.35 0.25 0
0.4 0.25 0
0.35 0.3 0
0.4 0.3 0
0.4 0.25 0
0.45 0.25 0
0.4 0.3 0
0.45 0.3 0
0.45 0.25 0
0.5 0.25 0
0.45 0.3 0
0.5 0.3 0
0.5 0.25 0
0.55 0.25 0
0.5 0.3 0
0.55 0.3 0
0.55 0.25 0
0.6 0.25 0
0.55 0.3 0
0.6 0.3 0
0.6 0.25 0
0.65 0.25 0
0.6 0.3 0
0.65 0.3 0
0.65 0.25 0
0.7 0.25 0
0.65 0.3 0
0.7 0.3 0
0.7 0.25 0
0.75 0.25 0
0.7 0.3 0
0.75 0.3 0
0.75 0.25 0
0.8 0.25 0
0.75 0.3 0
0.8 0.3 0
0.8 0.25 0
0.85 0.25 0
0.8 0.3 0
0.85 0.3 0
0.85 0.25 0
0.9 0.25 0
0.85 0.3 0
0.9 0.3 0
0.9 0.25 0
0.95 0.25 0
0.9 0.3 0
0.95 0.3 0
0.95 0.25 0
1 0.25 0
0.95 0.3 0
1 0.3 0
1 0.25 0
1.05 0.25 0
1 0.3 0
1.05 0.3 0
1.05 0.25 0
1.1 0.25 0
1.05 0.3 0
1.1 0.3 0
1.1 0.25 0
1.15 0.25 0
1.1 0.3 0
1.15 0.3 0
1.15 0.25 0
1.2 0.25 0
1.15 0.3 0
1.2 0.3 0
1.2 0.25 0
1.25 0.25 0
1.2 0.3 0
1.25 0.3 0
1.25 0.25 0
1.3 0.25 0
1.25 0.3 0
1.3 0.3 0
1.3 0.25 0
1.35 0.25 0
1.3 0.3 0
1.35 0.3 0
1.35 0.25 0
1.4 0.25 0
1.35 0.3 0
1.4 0.3 0
1.4 0.25 0
1.45 0.25 0
1.4 0.3 0
1.45 0.3 0
1.45 0.25 0
1.5 0.25 0
[...]
POINT_DATA 3200
SCALARS x_displacement double 1
LOOKUP_TABLE default
0 -2.37305 0 -0.978881 -2.37305 -4.25504 -0.978881 -2.08728 -4.25504 -5.7655 -2.08728 -3.1246 -5.7655 -6.97715 -3.1246 -4.0975 -6.97715 -7.96816 -4.0975 -5.00614 -7.96816 -8.82141 -5.00614 -5.85738 -8.82141 -9.60254 -5.85738 -6.66204 -9.60254 -10.3521 -6.66204 -7.43255 -10.3521 -11.0923 -7.43255 -8.18018 -11.0923 -11.8365 -8.18018 -8.91298 -11.8365 -12.595 -8.91298 -9.63505 -12.595 -13.3773 -9.63505 -10.3467 -13.3773 -14.1915 -10.3467 -11.0549 -14.1915 -15.0435 -11.0549 -11.7851 -15.0435 -15.9314 -11.7851 -12.5411 -15.9314 -16.8468 -12.5411 -13.3155 -16.8468 -17.7767 -13.3155 -14.0991 -17.7767 -18.7065 -14.0991 -14.8838 -18.7065 -19.6212 -14.8838 -15.6651 -19.6212 -20.5056 -15.6651 -16.4391 -20.5056 -21.3441 -16.4391 -17.2003 -21.3441 -22.1218 -17.2003 -17.9451 -22.1218 -22.8415 -17.9451 -18.6852 -22.8415 -23.5484 -18.6852 -19.4581 -23.5484 -24.2686 -19.4581 -20.2836 -24.2686 -24.989 -20.2836 -21.136 -24.989 -25.6868 -21.136 -21.9704 -25.6868 -26.3478 -21.9704 -22.7573 -26.3478 -26.9727 -22.7573 -23.4895 -26.9727 -27.5613 -23.4895 -24.1676 -27.5613 -28.1051 -24.1676 -24.792 -28.1051 -28.5932 -24.792 -25.3566 -28.5932 -29.0271 -25.3566 -25.8526 -29.0271 -29.4088 -25.8526 -26.278 -29.4088 -29.736 -26.278 -26.6483 -29.736 -30.0175 -26.6483 -26.9764 -30.0175 -30.3012 -26.9764 -27.2522 -30.3012 -30.9137 -27.2522 -27.4887 -30.9137 -31.1993 -27.4887 -27.6969 -31.1993 -31.2252 -27.6969 -27.7427 0 -0.978881 0 0.0436889 -0.978881 -2.08728 0.0436889 -0.210834 -2.08728 -3.1246 -0.210834 -0.746893 -3.1246 -4.0975 -0.746893 -1.45663 -4.0975 -5.00614 -1.45663 -2.25166 -5.00614 -5.85738 -2.25166 -3.05377 -5.85738 -6.66204 -3.05377 -3.83309 -6.66204 -7.43255 -3.83309 -4.58601 -7.43255 -8.18018 -4.58601 -5.31556 -8.18018 -8.91298 -5.31556 -6.02291 -8.91298 -9.63505 -6.02291 -6.70381 -9.63505 -10.3467 -6.70381 -7.35282 -10.3467 -11.0549 -7.35282 -7.97469 -11.0549 -11.7851 -7.97469 -8.60092 -11.7851 -12.5411 -8.60092 -9.24151 -12.5411 -13.3155 -9.24151 -9.89416 -13.3155 -14.0991 -9.89416 -10.556 -14.0991 -14.8838 -10.556 -11.2251 -14.8838 -15.6651 -11.2251 -11.9053 -15.6651 -16.4391 -11.9053 -12.6051 -16.4391 -17.2003 -12.6051 -13.3364 -17.2003 -17.9451 -13.3364 -14.1141 -17.9451 -18.6852 -14.1141 -14.9589 -18.6852 -19.4581 -14.9589 -15.8782 -19.4581 -20.2836 -15.8782 -16.8506 -20.2836 -21.136 -16.8506 -17.821 -21.136 -21.9704 -17.821 -18.7341 -21.9704 -22.7573 -18.7341 -19.5625 -22.7573 -23.4895 -19.5625 -20.3012 -23.4895 -24.1676 -20.3012 -20.9665 -24.1676 -24.792 -20.9665 -21.5863 -24.792 -25.3566 -21.5863 -22.15 -25.3566 -25.8526 -22.15 -22.6585 -25.8526 -26.278 -22.6585 -23.1166 -26.278 -26.6483 -23.1166 -23.5137 -26.6483 -26.9764 -23.5137 -23.8463 -26.9764 -27.2522 -23.8463 -24.1353 -27.2522 -27.4887 -24.1353 -24.3926 -27.4887 -27.6969 -24.3926 -24.6119 -27.6969 -27.7427 -24.6119 -24.6013 0 0.0436889 0 0.848761 0.0436889 -0.210834 0.848761 1.26921 -0.210834 -0.746893 1.26921 1.16657 -0.746893 -1.45663 1.16657 0.658062 -1.45663 -2.25166 0.658062 -0.0148159 -2.25166 -3.05377 -0.0148159 -0.713201 -3.05377 -3.83309 -0.713201 -1.40695 -3.83309 -4.58601 -1.40695 -2.09705 -4.58601 -5.31556 -2.09705 -2.78389 -5.31556 -6.02291 -2.78389 -3.46006 -6.02291 -6.70381 -3.46006 -4.11482 -6.70381 -7.35282 -4.11482 -4.74635 -7.35282 -7.97469 -4.74635 -5.36431 -7.97469 -8.60092 -5.36431 -5.9802 -8.60092 -9.24151 -5.9802 -6.5993 -9.24151 -9.89416 -6.5993 -7.22483 -9.89416 -10.556 -7.22483 -7.85596 -10.556 -11.2251 -7.85596 -8.49343 -11.2251 -11.9053 -8.49343 -9.14662 -11.9053 -12.6051 -9.14662 -9.8287 -12.6051 -13.3364 -9.8287 -10.5507 -13.3364 -14.1141 -10.5507 -11.3187 -14.1141 -14.9589 -11.3187 -12.13 -14.9589 -15.8782 -12.13 -12.9788 -15.8782 -16.8506 -12.9788 -13.8537 -16.8506 -17.821 -13.8537 -14.733 -17.821 -18.7341 -14.733 -15.5842 -18.7341 -19.5625 -15.5842 -16.3754 -19.5625 -20.3012 -16.3754 -17.0897 -20.3012 -20.9665 -17.0897 -17.736 -20.9665 -21.5863 -17.736 -18.3445 -21.5863 -22.15 -18.3445 -18.9268 -22.15 -22.6585 -18.9268 -19.4779 -22.6585 -23.1166 -19.4779 -19.9634 -23.1166 -23.5137 -19.9634 -20.3864 -23.5137 -23.8463 -20.3864 -20.7525 -23.8463 -24.1353 -20.7525 -21.0499 -24.1353 -24.3926 -21.0499 -21.2958 -24.3926 -24.6119 -21.2958 -21.5336 -24.6119 -24.6013 -21.5336 -21.8237 0 0.848761 0 1.17227 0.848761 1.26921 1.17227 1.85087 1.26921 1.16657 1.85087 1.84286 1.16657 0.658062 1.84286 1.45013 0.658062 -0.0148159 1.45013 0.972885 -0.0148159 -0.713201 0.972885 0.476829 -0.713201 -1.40695 0.476829 -0.0458861 -1.40695 -2.09705 -0.0458861 -0.616118 -2.09705 -2.78389 -0.616118 -1.23871 -2.78389 -3.46006 -1.23871 -1.90274 -3.46006 -4.11482 -1.90274 -2.59112 -4.11482 -4.74635 -2.59112 -3.29197 -4.74635 -5.36431 -3.29197 -3.99682 -5.36431 -5.9802 -3.99682 -4.69972 -5.9802 -6.5993 -4.69972 -5.39557 -6.5993 -7.22483 -5.39557 -6.07503 -7.22483 -7.85596 -6.07503 -6.72987 -7.85596 -8.49343 -6.72987 -7.35672 -8.49343 -9.14662 -7.35672 -7.94791 -9.14662 -9.8287 -7.94791 -8.50142 -9.8287 -10.5507 -8.50142 -9.02894 -10.5507 -11.3187 -9.02894 -9.54722 -11.3187 -12.13 -9.54722 -10.0718 -12.13 -12.9788 -10.0718 -10.6186 -12.9788 -13.8537 -10.6186 -11.205 -13.8537 -14.733 -11.205 -11.8421 -14.733 -15.5842 -11.8421 -12.5219 -15.5842 -16.3754 -12.5219 -13.2164 -16.3754 -17.0897 -13.2164 -13.8917 -17.0897 -17.736 -13.8917 -14.5308 -17.736 -18.3445 -14.5308 -15.1405 -18.3445 -18.9268 -15.1405 -15.7238 -18.9268 -19.4779 -15.7238 -16.2846 -19.4779 -19.9634 -16.2846 -16.7987 -19.9634 -20.3864 -16.7987 -17.2566 -20.3864 -20.7525 -17.2566 -17.6461 -20.7525 -21.0499 -17.6461 -17.9704 -21.0499 -21.2958 -17.9704 -18.2352 -21.2958 -21.5336 -18.2352 -18.4514 -21.5336 -21.8237 -18.4514 -18.7194 0 1.17227 0 1.32495 1.17227 1.85087 1.32495 2.13545 1.85087 1.84286 2.13545 2.2779 1.84286 1.45013 2.2779 2.07986 1.45013 0.972885 2.07986 1.76948 0.972885 0.476829 1.76948 1.39205 0.476829 -0.0458861 1.39205 0.943817 -0.0458861 -0.616118 0.943817 0.418139 -0.616118 -1.23871 0.418139 -0.187299 -1.23871 -1.90274 -0.187299 -0.861882 -1.90274 -2.59112 -0.861882 -1.57957 -2.59112 -3.29197 -1.57957 -2.31813 -3.29197 -3.99682 -2.31813 -3.0641 -3.99682 -4.69972 -3.0641 -3.80708 -4.69972 -5.39557 -3.80708 -4.53362 -5.39557 -6.07503 -4.53362 -5.23413 -6.07503 -6.72987 -5.23413 -5.89428 -6.72987 -7.35672 -5.89428 -6.49427 -7.35672 -7.94791 -6.49427 -7.0205 -7.94791 -8.50142 -7.0205 -7.47395 -8.50142 -9.02894 -7.47395 -7.86549 -9.02894 -9.54722 -7.86549 -8.21144 -9.54722 -10.0718 -8.21144 -8.53038 -10.0718 -10.6186 -8.53038 -8.83994 -10.6186 -11.205 -8.83994 -9.15775 -11.205 -11.8421 -9.15775 -9.50218 -11.8421 -12.5219 -9.50218 -9.89169 -12.5219 -13.2164 -9.89169 -10.341 -13.2164 -13.8917 -10.341 -10.8512 -13.8917 -14.5308 -10.8512 -11.4024 -14.5308 -15.1405 -11.4024 -11.9644 -15.1405 -15.7238 -11.9644 -12.5254 -15.7238 -16.2846 -12.5254 -13.0867 -16.2846 -16.7987 -13.0867 -13.62 -16.7987 -17.2566 -13.62 -14.1054 -17.2566 -17.6461 -14.1054 -14.5323 -17.6461 -17.9704 -14.5323 -14.8831 -17.9704 -18.2352 -14.8831 -15.1645 -18.2352 -18.4514 -15.1645 -15.41 -18.4514 -18.7194 -15.41 -15.7068 0 1.32495 0 1.67682 1.32495 2.13545 1.67682 2.88478 2.13545 2.2779 2.88478 3.05455 2.2779 2.07986 3.05455 2.86054 2.07986 1.76948 2.86054 2.57103 1.76948 1.39205 2.57103 2.20159 1.39205 0.943817 2.20159 1.74156 0.943817 0.418139 1.74156 1.1846 0.418139 -0.187299 1.1846 0.535732 -0.187299 -0.861882 0.535732 -0.182139 -0.861882 -1.57957 -0.182139 -0.94058 -1.57957 -2.31813 -0.94058 -1.70989 -2.31813 -3.0641 -1.70989 -2.46626 -3.0641 -3.80708 -2.46626 -3.19564 -3.80708 -4.53362 -3.19564 -3.88928 -4.53362 -5.23413 -3.88928 -4.53267 -5.23413 -5.89428 -4.53267 -5.11068 -5.89428 -6.49427 -5.11068 -5.61744 -6.49427 -7.0205 -5.61744 -6.04817 -7.0205 -7.47395 -6.04817 -6.40252 -7.47395 -7.86549 -6.40252 -6.6889 -7.86549 -8.21144 -6.6889 -6.9242 -8.21144 -8.53038 -6.9242 -7.12761 -8.53038 -8.83994 -7.12761 -7.3153 -8.83994 -9.15775 -7.3153 -7.49867 -9.15775 -9.50218 -7.49867 -7.68514 -9.50218 -9.89169 -7.68514 -7.87913 -9.89169 -10.341 -7.87913 -8.08526 -10.341 -10.8512 -8.08526 -8.3159 -10.8512 -11.4024 -8.3159 -8.59649 -11.4024 -11.9644 -8.59649 -8.95516 -11.9644 -12.5254 -8.95516 -9.394 -12.5254 -13.0867 -9.394 -9.88901 -13.0867 -13.62 -9.88901 -10.4198 -13.62 -14.1054 -10.4198 -10.9329 -14.1054 -14.5323 -10.9329 -11.3954 -14.5323 -14.8831 -11.3954 -11.7861 -14.8831 -15.1645 -11.7861 -12.1132 -15.1645 -15.41 -12.1132 -12.3638 -15.41 -15.7068 -12.3638 -12.5962 0 1.67682 0 2.36543 1.67682 2.88478 2.36543 3.57758 2.88478 3.05455 3.57758 3.454 3.05455 2.86054 3.454 3.19806 2.86054 2.57103 3.19806 2.8805 2.57103 2.20159 2.8805 2.4665 2.20159 1.74156 2.4665 1.94323 1.74156 1.1846 1.94323 1.32381 1.1846 0.535732 1.32381 0.63748 0.535732 -0.182139 0.63748 -0.082399 -0.182139 -0.94058 -0.082399 -0.800522 -0.94058 -1.70989 -0.800522 -1.48629 -1.70989 -2.46626 -1.48629 -2.12686 -2.46626 -3.19564 -2.12686 -2.72033 -3.19564 -3.88928 -2.72033 -3.26469 -3.88928 -4.53267 -3.26469 -3.75663 -4.53267 -5.11068 -3.75663 -4.19036 -5.11068 -5.61744 -4.19036 -4.55865 -5.61744 -6.04817 -4.55865 -4.86128 -6.04817 -6.40252 -4.86128 -5.10367 -6.40252 -6.6889 -5.10367 -5.29505 -6.6889 -6.9242 -5.29505 -5.44791 -6.9242 -7.12761 -5.44791 -5.57605 -7.12761 -7.3153 -5.57605 -5.69203 -7.3153 -7.49867 -5.69203 -5.80526 -7.49867 -7.68514 -5.80526 -5.92087 -7.68514 -7.87913 -5.92087 -6.03889 -7.87913 -8.08526 -6.03889 -6.15424 -8.08526 -8.3159 -6.15424 -6.25971 -8.3159 -8.59649 -6.25971 -6.35401 -8.59649 -8.95516 -6.35401 -6.45424 -8.95516 -9.394 -6.45424 -6.60503 -9.394 -9.88901 -6.60503 -6.86568 -9.88901 -10.4198 -6.86568 -7.24494 -10.4198 -10.9329 -7.24494 -7.71121 -10.9329 -11.3954 -7.71121 -8.21614 -11.3954 -11.7861 -8.21614 -8.66589 -11.7861 -12.1132 -8.66589 -9.01926 -12.1132 -12.3638 -9.01926 -9.30571 -12.3638 -12.5962 -9.30571 -9.5408 0 2.36543 0 3.23986 2.36543 3.57758 3.23986 3.44523 3.57758 3.454 3.44523 3.12019 3.454 3.19806 3.12019 2.78793 3.19806 2.8805 2.78793 2.39154 2.8805 2.4665 2.39154 1.92124 2.4665 1.94323 1.92124 1.39744 1.94323 1.32381 1.39744 0.843739 1.32381 0.63748 0.843739 0.283228 0.63748 -0.082399 0.283228 -0.263326 -0.082399 -0.800522 -0.263326 -0.780048 -0.800522 -1.48629 -0.780048 -1.25713 -1.48629 -2.12686 -1.25713 -1.68924 -2.12686 -2.72033 -1.68924 -2.07626 -2.72033 -3.26469 -2.07626 -2.42152 -3.26469 -3.75663 -2.42152 -2.72793 -3.75663 -4.19036 -2.72793 -2.9957 -4.19036 -4.55865 -2.9957 -3.22286 -4.55865 -4.86128 -3.22286 -3.40888 -4.86128 -5.10367 -3.40888 -3.55704 -5.10367 -5.29505 -3.55704 -3.67351 -5.29505 -5.44791 -3.67351 -3.76569 -5.44791 -5.57605 -3.76569 -3.84135 -5.57605 -5.69203 -3.84135 -3.90796 -5.69203 -5.80526 -3.90796 -3.97159 -5.80526 -5.92087 -3.97159 -4.03587 -5.92087 -6.03889 -4.03587 -4.10109 -6.03889 -6.15424 -4.10109 -4.1641 -6.15424 -6.25971 -4.1641 -4.21951 -6.25971 -6.35401 -4.21951 -4.26248 -6.35401 -6.45424 -4.26248 -4.29279 -6.45424 -6.60503 -4.29279 -4.31772 -6.60503 -6.86568 -4.31772 -4.35411 -6.86568 -7.24494 -4.35411 -4.44661 -7.24494 -7.71121 -4.44661 -4.66163 -7.71121 -8.21614 -4.66163 -5.02083 -8.21614 -8.66589 -5.02083 -5.4627 -8.66589 -9.01926 -5.4627 -5.90598 -9.01926 -9.30571 -5.90598 -6.21782 -9.30571 -9.5408 -6.21782 -6.42351 0 3.23986 0 2.71405 3.23986 3.44523 2.71405 2.32749 3.44523 3.12019 2.32749 1.9674 3.12019 2.78793 1.9674 1.61624 2.78793 2.39154 1.61624 1.26475 2.39154 1.92124 1.26475 0.919253 1.92124 1.39744 0.919253 0.590851 1.39744 0.843739 0.590851 0.28415 0.843739 0.283228 0.28415 -0.0026364 0.283228 -0.263326 -0.0026364 -0.270427 -0.263326 -0.780048 -0.270427 -0.518327 -0.780048 -1.25713 -0.518327 -0.745152 -1.25713 -1.68924 -0.745152 -0.949729 -1.68924 -2.07626 -0.949729 -1.13182 -2.07626 -2.42152 -1.13182 -1.29291 -2.42152 -2.72793 -1.29291 -1.43517 -2.72793 -2.9957 -1.43517 -1.55989 -2.9957 -3.22286 -1.55989 -1.66697 -3.22286 -3.40888 -1.66697 -1.75569 -3.40888 -3.55704 -1.75569 -1.82667 -3.55704 -3.67351 -1.82667 -1.8825 -3.67351 -3.76569 -1.8825 -1.92661 -3.76569 -3.84135 -1.92661 -1.9624 -3.84135 -3.90796 -1.9624 -1.99298 -3.90796 -3.97159 -1.99298 -2.02088 -3.97159 -4.03587 -2.02088 -2.04763 -4.03587 -4.10109 -2.04763 -2.07336 -4.10109 -4.1641 -2.07336 -2.09704 -4.1641 -4.21951 -2.09704 -2.11704 -4.21951 -4.26248 -2.11704 -2.13201 -4.26248 -4.29279 -2.13201 -2.14136 -4.29279 -4.31772 -2.14136 -2.14604 -4.31772 -4.35411 -2.14604 -2.15161 -4.35411 -4.44661 -2.15161 -2.1661 -4.44661 -4.66163 -2.1661 -2.1947 -4.66163 -5.02083 -2.1947 -2.26037 -5.02083 -5.4627 -2.26037 -2.44308 -5.4627 -5.90598 -2.44308 -2.75004 -5.90598 -6.21782 -2.75004 -3.22856 -6.21782 -6.42351 -3.22856 -3.31034 0 2.71405 0 6.48951e-11 2.71405 2.32749 6.48951e-11 4.58603e-11 2.32749 1.9674 4.58603e-11 3.59685e-11 1.9674 1.61624 3.59685e-11 1.88901e-11 1.61624 1.26475 1.88901e-11 1.62755e-11 1.26475 0.919253 1.62755e-11 1.9652e-11 0.919253 0.590851 1.9652e-11 2.16982e-11 0.590851 0.28415 2.16982e-11 2.0843e-11 0.28415 -0.0026364 2.0843e-11 2.04441e-11 -0.0026364 -0.270427 2.04441e-11 1.99723e-11 -0.270427 -0.518327 1.99723e-11 1.83855e-11 -0.518327 -0.745152 1.83855e-11 1.59452e-11 -0.745152 -0.949729 1.59452e-11 1.3205e-11 -0.949729 -1.13182 1.3205e-11 9.77659e-12 -1.13182 -1.29291 9.77659e-12 3.93195e-12 -1.29291 -1.43517 3.93195e-12 -1.97307e-12 -1.43517 -1.55989 -1.97307e-12 -7.55844e-12 -1.55989 -1.66697 -7.55844e-12 -1.46352e-11 -1.66697 -1.75569 -1.46352e-11 -2.22691e-11 -1.75569 -1.82667 -2.22691e-11 -2.68036e-11 -1.82667 -1.8825 -2.68036e-11 -3.19343e-11 -1.8825 -1.92661 -3.19343e-11 -3.60298e-11 -1.92661 -1.9624 -3.60298e-11 -3.78424e-11 -1.9624 -1.99298 -3.78424e-11 -3.90692e-11 -1.99298 -2.02088 -3.90692e-11 -3.70832e-11 -2.02088 -2.04763 -3.70832e-11 -3.4453e-11 -2.04763 -2.07336 -3.4453e-11 -3.19178e-11 -2.07336 -2.09704 -3.19178e-11 -2.64287e-11 -2.09704 -2.11704 -2.64287e-11 -2.0846e-11 -2.11704 -2.13201 -2.0846e-11 -1.47564e-11 -2.13201 -2.14136 -1.47564e-11 -8.09724e-12 -2.14136 -2.14604 -8.09724e-12 -2.5743e-12 -2.14604 -2.15161 -2.5743e-12 8.6504e-13 -2.15161 -2.1661 8.6504e-13 7.41501e-12 -2.1661 -2.1947 7.41501e-12 1.00983e-11 -2.1947 -2.26037 1.00983e-11 1.13397e-11 -2.26037 -2.44308 1.13397e-11 9.98124e-12 -2.44308 -2.75004 9.98124e-12 6.62334e-12 -2.75004 -3.22856 6.62334e-12 5.8097e-12 -3.22856 -3.31034 5.8097e-12 6.23744e-12 0 6.48951e-11 0 -2.71405 6.48951e-11 4.58603e-11 -2.71405 -2.32749 4.58603e-11 3.59685e-11 -2.32749 -1.9674 3.59685e-11 1.88901e-11 -1.9674 -1.61624 1.88901e-11 1.62755e-11 -1.61624 -1.26475 1.62755e-11 1.9652e-11 -1.26475 -0.919253 1.9652e-11 2.16982e-11 -0.919253 -0.590851 2.16982e-11 2.0843e-11 -0.590851 -0.28415 2.0843e-11 2.04441e-11 -0.28415 0.0026364 2.04441e-11 1.99723e-11 0.0026364 0.270427 1.99723e-11 1.83855e-11 0.270427 0.518327 1.83855e-11 1.59452e-11 0.518327 0.745152 1.59452e-11 1.3205e-11 0.745152 0.949729 1.3205e-11 9.77659e-12 0.949729 1.13182 9.77659e-12 3.93195e-12 1.13182 1.29291 3.93195e-12 -1.97307e-12 1.29291 1.43517 -1.97307e-12 -7.55844e-12 1.43517 1.55989 -7.55844e-12 -1.46352e-11 1.55989 1.66697 -1.46352e-11 -2.22691e-11 1.66697 1.75569 -2.22691e-11 -2.68036e-11 1.75569 1.82667 -2.68036e-11 -3.19343e-11 1.82667 1.8825 -3.19343e-11 -3.60298e-11 1.8825 1.92661 -3.60298e-11 -3.78424e-11 1.92661 1.9624 -3.78424e-11 -3.90692e-11 1.9624 1.99298 -3.90692e-11 -3.70832e-11 1.99298 2.02088 -3.70832e-11 -3.4453e-11 2.02088 2.04763 -3.4453e-11 -3.19178e-11 2.04763 2.07336 -3.19178e-11 -2.64287e-11 2.07336 2.09704 -2.64287e-11 -2.0846e-11 2.09704 2.11704 -2.0846e-11 -1.47564e-11 2.11704 2.13201 -1.47564e-11 -8.09724e-12 2.13201 2.14136 -8.09724e-12 -2.5743e-12 2.14136 2.14604 -2.5743e-12 8.6504e-13 2.14604 2.15161 8.6504e-13 7.41501e-12 2.15161 2.1661 7.41501e-12 1.00983e-11 2.1661 2.1947 1.00983e-11 1.13397e-11 2.1947 2.26037 1.13397e-11 9.98124e-12 2.26037 2.44308 9.98124e-12 6.62334e-12 2.44308 2.75004 6.62334e-12 5.8097e-12 2.75004 3.22856 5.8097e-12 6.23744e-12 3.22856 3.31034 0 -2.71405 0 -3.23986 -2.71405 -2.32749 -3.23986 -3.44523 -2.32749 -1.9674 -3.44523 -3.12019 -1.9674 -1.61624 -3.12019 -2.78793 -1.61624 -1.26475 -2.78793 -2.39154 -1.26475 -0.919253 -2.39154 -1.92124 -0.919253 -0.590851 -1.92124 -1.39744 -0.590851 -0.28415 -1.39744 -0.843739 -0.28415 0.0026364 -0.843739 -0.283228 0.0026364 0.270427 -0.283228 0.263326 0.270427 0.518327 0.263326 0.780048 0.518327 0.745152 0.780048 1.25713 0.745152 0.949729 1.25713 1.68924 0.949729 1.13182 1.68924 2.07626 1.13182 1.29291 2.07626 2.42152 1.29291 1.43517 2.42152 2.72793 1.43517 1.55989 2.72793 2.9957 1.55989 1.66697 2.9957 3.22286 1.66697 1.75569 3.22286 3.40888 1.75569 1.82667 3.40888 3.55704 1.82667 1.8825 3.55704 3.67351 1.8825 1.92661 3.67351 3.76569 1.92661 1.9624 3.76569 3.84135 1.9624 1.99298 3.84135 3.90796 1.99298 2.02088 3.90796 3.97159 2.02088 2.04763 3.97159 4.03587 2.04763 2.07336 4.03587 4.10109 2.07336 2.09704 4.10109 4.1641 2.09704 2.11704 4.1641 4.21951 2.11704 2.13201 4.21951 4.26248 2.13201 2.14136 4.26248 4.29279 2.14136 2.14604 4.29279 4.31772 2.14604 2.15161 4.31772 4.35411 2.15161 2.1661 4.35411 4.44661 2.1661 2.1947 4.44661 4.66163 2.1947 2.26037 4.66163 5.02083 2.26037 2.44308 5.02083 5.4627 2.44308 2.75004 5.4627 5.90598 2.75004 3.22856 5.90598 6.21782 3.22856 3.31034 6.21782 6.42351 0 -3.23986 0 -2.36543 -3.23986 -3.44523 -2.36543 -3.57758 -3.44523 -3.12019 -3.57758 -3.454 -3.12019 -2.78793 -3.454 -3.19806 -2.78793 -2.39154 -3.19806 -2.8805 -2.39154 -1.92124 -2.8805 -2.4665 -1.92124 -1.39744 -2.4665 -1.94323 -1.39744 -0.843739 -1.94323 -1.32381 -0.843739 -0.283228 -1.32381 -0.63748 -0.283228 0.263326 -0.63748 0.082399 0.263326 0.780048 0.082399 0.800522 0.780048 1.25713 0.800522 1.48629 1.25713 1.68924 1.48629 2.12686 1.68924 2.07626 2.12686 2.72033 2.07626 2.42152 2.72033 3.26469 2.42152 2.72793 3.26469 3.75663 2.72793 2.9957 3.75663 4.19036 2.9957 3.22286 4.19036 4.55865 3.22286 3.40888 4.55865 4.86128 3.40888 3.55704 4.86128 5.10367 3.55704 3.67351 5.10367 5.29505 3.67351 3.76569 5.29505 5.44791 3.76569 3.84135 5.44791 5.57605 3.84135 3.90796 5.57605 5.69203 3.90796 3.97159 5.69203 5.80526 3.97159 4.03587 5.80526 5.92087 4.03587 4.10109 5.92087 6.03889 4.10109 4.1641 6.03889 6.15424 4.1641 4.21951 6.15424 6.25971 4.21951 4.26248 6.25971 6.35401 4.26248 4.29279 6.35401 6.45424 4.29279 4.31772 6.45424 6.60503 4.31772 4.35411 6.60503 6.86568 4.35411 4.44661 6.86568 7.24494 4.44661 4.66163 7.24494 7.71121 4.66163 5.02083 7.71121 8.21614 5.02083 5.4627 8.21614 8.66589 5.4627 5.90598 8.66589 9.01926 5.90598 6.21782 9.01926 9.30571 6.21782 6.42351 9.30571 9.5408 0 -2.36543 0 -1.67682 -2.36543 -3.57758 -1.67682 -2.88478 -3.57758 -3.454 -2.88478 -3.05455 -3.454 -3.19806 -3.05455 -2.86054 -3.19806 -2.8805 -2.86054 -2.57103 -2.8805 -2.4665 -2.57103 -2.20159 -2.4665 -1.94323 -2.20159 -1.74156 -1.94323 -1.32381 -1.74156 -1.1846 -1.32381 -0.63748 -1.1846 -0.535732 -0.63748 0.082399 -0.535732 0.182139 0.082399 0.800522 0.182139 0.94058 0.800522 1.48629 0.94058 1.70989 1.48629 2.12686 1.70989 2.46626 2.12686 2.72033 2.46626 3.19564 2.72033 3.26469 3.19564 3.88928 3.26469 3.75663 3.88928 4.53267 3.75663 4.19036 4.53267 5.11068 4.19036 4.55865 5.11068 5.61744 4.55865 4.86128 5.61744 6.04817 4.86128 5.10367 6.04817 6.40252 5.10367 5.29505 6.40252 6.6889 5.29505 5.44791 6.6889 6.9242 5.44791 5.57605 6.9242 7.12761 5.57605 5.69203 7.12761 7.3153 5.69203 5.80526 7.3153 7.49867 5.80526 5.92087 7.49867 7.68514 5.92087 6.03889 7.68514 7.87913 6.03889 6.15424 7.87913 8.08526 6.15424 6.25971 8.08526 8.3159 6.25971 6.35401 8.3159 8.59649 6.35401 6.45424 8.59649 8.95516 6.45424 6.60503 8.95516 9.394 6.60503 6.86568 9.394 9.88901 6.86568 7.24494 9.88901 10.4198 7.24494 7.71121 10.4198 10.9329 7.71121 8.21614 10.9329 11.3954 8.21614 8.66589 11.3954 11.7861 8.66589 9.01926 11.7861 12.1132 9.01926 9.30571 12.1132 12.3638 9.30571 9.5408 12.3638 12.5962 0 -1.67682 0 -1.32495 -1.67682 -2.88478 -1.32495 -2.13545 -2.88478 -3.05455 -2.13545 -2.2779 -3.05455 -2.86054 -2.2779 -2.07986 -2.86054 -2.57103 -2.07986