# vtk DataFile Version 3.0
#This file was generated by the deal.II library on 2015/9/1 at 17:12:52
ASCII
DATASET UNSTRUCTURED_GRID

POINTS 3200 double
0 0 0
0.05 0 0
0 0.05 0
0.05 0.05 0
0.05 0 0
0.1 0 0
0.05 0.05 0
0.1 0.05 0
0.1 0 0
0.15 0 0
0.1 0.05 0
0.15 0.05 0
0.15 0 0
0.2 0 0
0.15 0.05 0
0.2 0.05 0
0.2 0 0
0.25 0 0
0.2 0.05 0
0.25 0.05 0
0.25 0 0
0.3 0 0
0.25 0.05 0
0.3 0.05 0
0.3 0 0
0.35 0 0
0.3 0.05 0
0.35 0.05 0
0.35 0 0
0.4 0 0
0.35 0.05 0
0.4 0.05 0
0.4 0 0
0.45 0 0
0.4 0.05 0
0.45 0.05 0
0.45 0 0
0.5 0 0
0.45 0.05 0
0.5 0.05 0
0.5 0 0
0.55 0 0
0.5 0.05 0
0.55 0.05 0
0.55 0 0
0.6 0 0
0.55 0.05 0
0.6 0.05 0
0.6 0 0
0.65 0 0
0.6 0.05 0
0.65 0.05 0
0.65 0 0
0.7 0 0
0.65 0.05 0
0.7 0.05 0
0.7 0 0
0.75 0 0
0.7 0.05 0
0.75 0.05 0
0.75 0 0
0.8 0 0
0.75 0.05 0
0.8 0.05 0
0.8 0 0
0.85 0 0
0.8 0.05 0
0.85 0.05 0
0.85 0 0
0.9 0 0
0.85 0.05 0
0.9 0.05 0
0.9 0 0
0.95 0 0
0.9 0.05 0
0.95 0.05 0
0.95 0 0
1 0 0
0.95 0.05 0
1 0.05 0
1 0 0
1.05 0 0
1 0.05 0
1.05 0.05 0
1.05 0 0
1.1 0 0
1.05 0.05 0
1.1 0.05 0
1.1 0 0
1.15 0 0
1.1 0.05 0
1.15 0.05 0
1.15 0 0
1.2 0 0
1.15 0.05 0
1.2 0.05 0
1.2 0 0
1.25 0 0
1.2 0.05 0
1.25 0.05 0
1.25 0 0
1.3 0 0
1.25 0.05 0
1.3 0.05 0
1.3 0 0
1.35 0 0
1.3 0.05 0
1.35 0.05 0
1.35 0 0
1.4 0 0
1.35 0.05 0
1.4 0.05 0
1.4 0 0
1.45 0 0
1.4 0.05 0
1.45 0.05 0
1.45 0 0
1.5 0 0
1.45 0.05 0
1.5 0.05 0
1.5 0 0
1.55 0 0
1.5 0.05 0
1.55 0.05 0
1.55 0 0
1.6 0 0
1.55 0.05 0
1.6 0.05 0
1.6 0 0
1.65 0 0
1.6 0.05 0
1.65 0.05 0
1.65 0 0
1.7 0 0
1.65 0.05 0
1.7 0.05 0
1.7 0 0
1.75 0 0
1.7 0.05 0
1.75 0.05 0
1.75 0 0
1.8 0 0
1.75 0.05 0
1.8 0.05 0
1.8 0 0
1.85 0 0
1.8 0.05 0
1.85 0.05 0
1.85 0 0
1.9 0 0
1.85 0.05 0
1.9 0.05 0
1.9 0 0
1.95 0 0
1.9 0.05 0
1.95 0.05 0
1.95 0 0
2 0 0
1.95 0.05 0
2 0.05 0
0 0.05 0
0.05 0.05 0
0 0.1 0
0.05 0.1 0
0.05 0.05 0
0.1 0.05 0
0.05 0.1 0
0.1 0.1 0
0.1 0.05 0
0.15 0.05 0
0.1 0.1 0
0.15 0.1 0
0.15 0.05 0
0.2 0.05 0
0.15 0.1 0
0.2 0.1 0
0.2 0.05 0
0.25 0.05 0
0.2 0.1 0
0.25 0.1 0
0.25 0.05 0
0.3 0.05 0
0.25 0.1 0
0.3 0.1 0
0.3 0.05 0
0.35 0.05 0
0.3 0.1 0
0.35 0.1 0
0.35 0.05 0
0.4 0.05 0
0.35 0.1 0
0.4 0.1 0
0.4 0.05 0
0.45 0.05 0
0.4 0.1 0
0.45 0.1 0
0.45 0.05 0
0.5 0.05 0
0.45 0.1 0
0.5 0.1 0
0.5 0.05 0
0.55 0.05 0
0.5 0.1 0
0.55 0.1 0
0.55 0.05 0
0.6 0.05 0
0.55 0.1 0
0.6 0.1 0
0.6 0.05 0
0.65 0.05 0
0.6 0.1 0
0.65 0.1 0
0.65 0.05 0
0.7 0.05 0
0.65 0.1 0
0.7 0.1 0
0.7 0.05 0
0.75 0.05 0
0.7 0.1 0
0.75 0.1 0
0.75 0.05 0
0.8 0.05 0
0.75 0.1 0
0.8 0.1 0
0.8 0.05 0
0.85 0.05 0
0.8 0.1 0
0.85 0.1 0
0.85 0.05 0
0.9 0.05 0
0.85 0.1 0
0.9 0.1 0
0.9 0.05 0
0.95 0.05 0
0.9 0.1 0
0.95 0.1 0
0.95 0.05 0
1 0.05 0
0.95 0.1 0
1 0.1 0
1 0.05 0
1.05 0.05 0
1 0.1 0
1.05 0.1 0
1.05 0.05 0
1.1 0.05 0
1.05 0.1 0
1.1 0.1 0
1.1 0.05 0
1.15 0.05 0
1.1 0.1 0
1.15 0.1 0
1.15 0.05 0
1.2 0.05 0
1.15 0.1 0
1.2 0.1 0
1.2 0.05 0
1.25 0.05 0
1.2 0.1 0
1.25 0.1 0
1.25 0.05 0
1.3 0.05 0
1.25 0.1 0
1.3 0.1 0
1.3 0.05 0
1.35 0.05 0
1.3 0.1 0
1.35 0.1 0
1.35 0.05 0
1.4 0.05 0
1.35 0.1 0
1.4 0.1 0
1.4 0.05 0
1.45 0.05 0
1.4 0.1 0
1.45 0.1 0
1.45 0.05 0
1.5 0.05 0
1.45 0.1 0
1.5 0.1 0
1.5 0.05 0
1.55 0.05 0
1.5 0.1 0
1.55 0.1 0
1.55 0.05 0
1.6 0.05 0
1.55 0.1 0
1.6 0.1 0
1.6 0.05 0
1.65 0.05 0
1.6 0.1 0
1.65 0.1 0
1.65 0.05 0
1.7 0.05 0
1.65 0.1 0
1.7 0.1 0
1.7 0.05 0
1.75 0.05 0
1.7 0.1 0
1.75 0.1 0
1.75 0.05 0
1.8 0.05 0
1.75 0.1 0
1.8 0.1 0
1.8 0.05 0
1.85 0.05 0
1.8 0.1 0
1.85 0.1 0
1.85 0.05 0
1.9 0.05 0
1.85 0.1 0
1.9 0.1 0
1.9 0.05 0
1.95 0.05 0
1.9 0.1 0
1.95 0.1 0
1.95 0.05 0
2 0.05 0
1.95 0.1 0
2 0.1 0
0 0.1 0
0.05 0.1 0
0 0.15 0
0.05 0.15 0
0.05 0.1 0
0.1 0.1 0
0.05 0.15 0
0.1 0.15 0
0.1 0.1 0
0.15 0.1 0
0.1 0.15 0
0.15 0.15 0
0.15 0.1 0
0.2 0.1 0
0.15 0.15 0
0.2 0.15 0
0.2 0.1 0
0.25 0.1 0
0.2 0.15 0
0.25 0.15 0
0.25 0.1 0
0.3 0.1 0
0.25 0.15 0
0.3 0.15 0
0.3 0.1 0
0.35 0.1 0
0.3 0.15 0
0.35 0.15 0
0.35 0.1 0
0.4 0.1 0
0.35 0.15 0
0.4 0.15 0
0.4 0.1 0
0.45 0.1 0
0.4 0.15 0
0.45 0.15 0
0.45 0.1 0
0.5 0.1 0
0.45 0.15 0
0.5 0.15 0
0.5 0.1 0
0.55 0.1 0
0.5 0.15 0
0.55 0.15 0
0.55 0.1 0
0.6 0.1 0
0.55 0.15 0
0.6 0.15 0
0.6 0.1 0
0.65 0.1 0
0.6 0.15 0
0.65 0.15 0
0.65 0.1 0
0.7 0.1 0
0.65 0.15 0
0.7 0.15 0
0.7 0.1 0
0.75 0.1 0
0.7 0.15 0
0.75 0.15 0
0.75 0.1 0
0.8 0.1 0
0.75 0.15 0
0.8 0.15 0
0.8 0.1 0
0.85 0.1 0
0.8 0.15 0
0.85 0.15 0
0.85 0.1 0
0.9 0.1 0
0.85 0.15 0
0.9 0.15 0
0.9 0.1 0
0.95 0.1 0
0.9 0.15 0
0.95 0.15 0
0.95 0.1 0
1 0.1 0
0.95 0.15 0
1 0.15 0
1 0.1 0
1.05 0.1 0
1 0.15 0
1.05 0.15 0
1.05 0.1 0
1.1 0.1 0
1.05 0.15 0
1.1 0.15 0
1.1 0.1 0
1.15 0.1 0
1.1 0.15 0
1.15 0.15 0
1.15 0.1 0
1.2 0.1 0
1.15 0.15 0
1.2 0.15 0
1.2 0.1 0
1.25 0.1 0
1.2 0.15 0
1.25 0.15 0
1.25 0.1 0
1.3 0.1 0
1.25 0.15 0
1.3 0.15 0
1.3 0.1 0
1.35 0.1 0
1.3 0.15 0
1.35 0.15 0
1.35 0.1 0
1.4 0.1 0
1.35 0.15 0
1.4 0.15 0
1.4 0.1 0
1.45 0.1 0
1.4 0.15 0
1.45 0.15 0
1.45 0.1 0
1.5 0.1 0
1.45 0.15 0
1.5 0.15 0
1.5 0.1 0
1.55 0.1 0
1.5 0.15 0
1.55 0.15 0
1.55 0.1 0
1.6 0.1 0
1.55 0.15 0
1.6 0.15 0
1.6 0.1 0
1.65 0.1 0
1.6 0.15 0
1.65 0.15 0
1.65 0.1 0
1.7 0.1 0
1.65 0.15 0
1.7 0.15 0
1.7 0.1 0
1.75 0.1 0
1.7 0.15 0
1.75 0.15 0
1.75 0.1 0
1.8 0.1 0
1.75 0.15 0
1.8 0.15 0
1.8 0.1 0
1.85 0.1 0
1.8 0.15 0
1.85 0.15 0
1.85 0.1 0
1.9 0.1 0
1.85 0.15 0
1.9 0.15 0
1.9 0.1 0
1.95 0.1 0
1.9 0.15 0
1.95 0.15 0
1.95 0.1 0
2 0.1 0
1.95 0.15 0
2 0.15 0
0 0.15 0
0.05 0.15 0
0 0.2 0
0.05 0.2 0
0.05 0.15 0
0.1 0.15 0
0.05 0.2 0
0.1 0.2 0
0.1 0.15 0
0.15 0.15 0
0.1 0.2 0
0.15 0.2 0
0.15 0.15 0
0.2 0.15 0
0.15 0.2 0
0.2 0.2 0
0.2 0.15 0
0.25 0.15 0
0.2 0.2 0
0.25 0.2 0
0.25 0.15 0
0.3 0.15 0
0.25 0.2 0
0.3 0.2 0
0.3 0.15 0
0.35 0.15 0
0.3 0.2 0
0.35 0.2 0
0.35 0.15 0
0.4 0.15 0
0.35 0.2 0
0.4 0.2 0
0.4 0.15 0
0.45 0.15 0
0.4 0.2 0
0.45 0.2 0
0.45 0.15 0
0.5 0.15 0
0.45 0.2 0
0.5 0.2 0
0.5 0.15 0
0.55 0.15 0
0.5 0.2 0
0.55 0.2 0
0.55 0.15 0
0.6 0.15 0
0.55 0.2 0
0.6 0.2 0
0.6 0.15 0
0.65 0.15 0
0.6 0.2 0
0.65 0.2 0
0.65 0.15 0
0.7 0.15 0
0.65 0.2 0
0.7 0.2 0
0.7 0.15 0
0.75 0.15 0
0.7 0.2 0
0.75 0.2 0
0.75 0.15 0
0.8 0.15 0
0.75 0.2 0
0.8 0.2 0
0.8 0.15 0
0.85 0.15 0
0.8 0.2 0
0.85 0.2 0
0.85 0.15 0
0.9 0.15 0
0.85 0.2 0
0.9 0.2 0
0.9 0.15 0
0.95 0.15 0
0.9 0.2 0
0.95 0.2 0
0.95 0.15 0
1 0.15 0
0.95 0.2 0
1 0.2 0
1 0.15 0
1.05 0.15 0
1 0.2 0
1.05 0.2 0
1.05 0.15 0
1.1 0.15 0
1.05 0.2 0
1.1 0.2 0
1.1 0.15 0
1.15 0.15 0
1.1 0.2 0
1.15 0.2 0
1.15 0.15 0
1.2 0.15 0
1.15 0.2 0
1.2 0.2 0
1.2 0.15 0
1.25 0.15 0
1.2 0.2 0
1.25 0.2 0
1.25 0.15 0
1.3 0.15 0
1.25 0.2 0
1.3 0.2 0
1.3 0.15 0
1.35 0.15 0
1.3 0.2 0
1.35 0.2 0
1.35 0.15 0
1.4 0.15 0
1.35 0.2 0
1.4 0.2 0
1.4 0.15 0
1.45 0.15 0
1.4 0.2 0
1.45 0.2 0
1.45 0.15 0
1.5 0.15 0
1.45 0.2 0
1.5 0.2 0
1.5 0.15 0
1.55 0.15 0
1.5 0.2 0
1.55 0.2 0
1.55 0.15 0
1.6 0.15 0
1.55 0.2 0
1.6 0.2 0
1.6 0.15 0
1.65 0.15 0
1.6 0.2 0
1.65 0.2 0
1.65 0.15 0
1.7 0.15 0
1.65 0.2 0
1.7 0.2 0
1.7 0.15 0
1.75 0.15 0
1.7 0.2 0
1.75 0.2 0
1.75 0.15 0
1.8 0.15 0
1.75 0.2 0
1.8 0.2 0
1.8 0.15 0
1.85 0.15 0
1.8 0.2 0
1.85 0.2 0
1.85 0.15 0
1.9 0.15 0
1.85 0.2 0
1.9 0.2 0
1.9 0.15 0
1.95 0.15 0
1.9 0.2 0
1.95 0.2 0
1.95 0.15 0
2 0.15 0
1.95 0.2 0
2 0.2 0
0 0.2 0
0.05 0.2 0
0 0.25 0
0.05 0.25 0
0.05 0.2 0
0.1 0.2 0
0.05 0.25 0
0.1 0.25 0
0.1 0.2 0
0.15 0.2 0
0.1 0.25 0
0.15 0.25 0
0.15 0.2 0
0.2 0.2 0
0.15 0.25 0
0.2 0.25 0
0.2 0.2 0
0.25 0.2 0
0.2 0.25 0
0.25 0.25 0
0.25 0.2 0
0.3 0.2 0
0.25 0.25 0
0.3 0.25 0
0.3 0.2 0
0.35 0.2 0
0.3 0.25 0
0.35 0.25 0
0.35 0.2 0
0.4 0.2 0
0.35 0.25 0
0.4 0.25 0
0.4 0.2 0
0.45 0.2 0
0.4 0.25 0
0.45 0.25 0
0.45 0.2 0
0.5 0.2 0
0.45 0.25 0
0.5 0.25 0
0.5 0.2 0
0.55 0.2 0
0.5 0.25 0
0.55 0.25 0
0.55 0.2 0
0.6 0.2 0
0.55 0.25 0
0.6 0.25 0
0.6 0.2 0
0.65 0.2 0
0.6 0.25 0
0.65 0.25 0
0.65 0.2 0
0.7 0.2 0
0.65 0.25 0
0.7 0.25 0
0.7 0.2 0
0.75 0.2 0
0.7 0.25 0
0.75 0.25 0
0.75 0.2 0
0.8 0.2 0
0.75 0.25 0
0.8 0.25 0
0.8 0.2 0
0.85 0.2 0
0.8 0.25 0
0.85 0.25 0
0.85 0.2 0
0.9 0.2 0
0.85 0.25 0
0.9 0.25 0
0.9 0.2 0
0.95 0.2 0
0.9 0.25 0
0.95 0.25 0
0.95 0.2 0
1 0.2 0
0.95 0.25 0
1 0.25 0
1 0.2 0
1.05 0.2 0
1 0.25 0
1.05 0.25 0
1.05 0.2 0
1.1 0.2 0
1.05 0.25 0
1.1 0.25 0
1.1 0.2 0
1.15 0.2 0
1.1 0.25 0
1.15 0.25 0
1.15 0.2 0
1.2 0.2 0
1.15 0.25 0
1.2 0.25 0
1.2 0.2 0
1.25 0.2 0
1.2 0.25 0
1.25 0.25 0
1.25 0.2 0
1.3 0.2 0
1.25 0.25 0
1.3 0.25 0
1.3 0.2 0
1.35 0.2 0
1.3 0.25 0
1.35 0.25 0
1.35 0.2 0
1.4 0.2 0
1.35 0.25 0
1.4 0.25 0
1.4 0.2 0
1.45 0.2 0
1.4 0.25 0
1.45 0.25 0
1.45 0.2 0
1.5 0.2 0
1.45 0.25 0
1.5 0.25 0
1.5 0.2 0
1.55 0.2 0
1.5 0.25 0
1.55 0.25 0
1.55 0.2 0
1.6 0.2 0
1.55 0.25 0
1.6 0.25 0
1.6 0.2 0
1.65 0.2 0
1.6 0.25 0
1.65 0.25 0
1.65 0.2 0
1.7 0.2 0
1.65 0.25 0
1.7 0.25 0
1.7 0.2 0
1.75 0.2 0
1.7 0.25 0
1.75 0.25 0
1.75 0.2 0
1.8 0.2 0
1.75 0.25 0
1.8 0.25 0
1.8 0.2 0
1.85 0.2 0
1.8 0.25 0
1.85 0.25 0
1.85 0.2 0
1.9 0.2 0
1.85 0.25 0
1.9 0.25 0
1.9 0.2 0
1.95 0.2 0
1.9 0.25 0
1.95 0.25 0
1.95 0.2 0
2 0.2 0
1.95 0.25 0
2 0.25 0
0 0.25 0
0.05 0.25 0
0 0.3 0
0.05 0.3 0
0.05 0.25 0
0.1 0.25 0
0.05 0.3 0
0.1 0.3 0
0.1 0.25 0
0.15 0.25 0
0.1 0.3 0
0.15 0.3 0
0.15 0.25 0
0.2 0.25 0
0.15 0.3 0
0.2 0.3 0
0.2 0.25 0
0.25 0.25 0
0.2 0.3 0
0.25 0.3 0
0.25 0.25 0
0.3 0.25 0
0.25 0.3 0
0.3 0.3 0
0.3 0.25 0
0.35 0.25 0
0.3 0.3 0
0.35 0.3 0
0.35 0.25 0
0.4 0.25 0
0.35 0.3 0
0.4 0.3 0
0.4 0.25 0
0.45 0.25 0
0.4 0.3 0
0.45 0.3 0
0.45 0.25 0
0.5 0.25 0
0.45 0.3 0
0.5 0.3 0
0.5 0.25 0
0.55 0.25 0
0.5 0.3 0
0.55 0.3 0
0.55 0.25 0
0.6 0.25 0
0.55 0.3 0
0.6 0.3 0
0.6 0.25 0
0.65 0.25 0
0.6 0.3 0
0.65 0.3 0
0.65 0.25 0
0.7 0.25 0
0.65 0.3 0
0.7 0.3 0
0.7 0.25 0
0.75 0.25 0
0.7 0.3 0
0.75 0.3 0
0.75 0.25 0
0.8 0.25 0
0.75 0.3 0
0.8 0.3 0
0.8 0.25 0
0.85 0.25 0
0.8 0.3 0
0.85 0.3 0
0.85 0.25 0
0.9 0.25 0
0.85 0.3 0
0.9 0.3 0
0.9 0.25 0
0.95 0.25 0
0.9 0.3 0
0.95 0.3 0
0.95 0.25 0
1 0.25 0
0.95 0.3 0
1 0.3 0
1 0.25 0
1.05 0.25 0
1 0.3 0
1.05 0.3 0
1.05 0.25 0
1.1 0.25 0
1.05 0.3 0
1.1 0.3 0
1.1 0.25 0
1.15 0.25 0
1.1 0.3 0
1.15 0.3 0
1.15 0.25 0
1.2 0.25 0
1.15 0.3 0
1.2 0.3 0
1.2 0.25 0
1.25 0.25 0
1.2 0.3 0
1.25 0.3 0
1.25 0.25 0
1.3 0.25 0
1.25 0.3 0
1.3 0.3 0
1.3 0.25 0
1.35 0.25 0
1.3 0.3 0
1.35 0.3 0
1.35 0.25 0
1.4 0.25 0
1.35 0.3 0
1.4 0.3 0
1.4 0.25 0
1.45 0.25 0
1.4 0.3 0
1.45 0.3 0
1.45 0.25 0
1.5 0.25 0
[...]
POINT_DATA 3200
SCALARS x_displacement double 1
LOOKUP_TABLE default
0 -3.41658 0 -2.23744 -3.41658 -6.19095 -2.23744 -4.65058 -6.19095 -8.73754 -4.65058 -6.91149 -8.73754 -11.1538 -6.91149 -9.04542 -11.1538 -13.4627 -9.04542 -11.0767 -13.4627 -15.6783 -11.0767 -13.0226 -15.6783 -17.8117 -13.0226 -14.8952 -17.8117 -19.8728 -14.8952 -16.7032 -19.8728 -21.8695 -16.7032 -18.4531 -21.8695 -23.8082 -18.4531 -20.1498 -23.8082 -25.6936 -20.1498 -21.7969 -25.6936 -27.5296 -21.7969 -23.3974 -27.5296 -29.3189 -23.3974 -24.9532 -29.3189 -31.0636 -24.9532 -26.4658 -31.0636 -32.7656 -26.4658 -27.9361 -32.7656 -34.4269 -27.9361 -29.3657 -34.4269 -36.0492 -29.3657 -30.7554 -36.0492 -37.6341 -30.7554 -32.1054 -37.6341 -39.1831 -32.1054 -33.4172 -39.1831 -40.6964 -33.4172 -34.693 -40.6964 -42.1749 -34.693 -35.9305 -42.1749 -43.6237 -35.9305 -37.1369 -43.6237 -45.0617 -37.1369 -38.3621 -45.0617 -46.5604 -38.3621 -39.6569 -46.5604 -48.2252 -39.6569 -41.0808 -48.2252 -50.0981 -41.0808 -42.6683 -50.0981 -52.194 -42.6683 -44.4418 -52.194 -54.5337 -44.4418 -46.4281 -54.5337 -57.148 -46.4281 -48.6625 -57.148 -60.091 -48.6625 -51.1937 -60.091 -63.4697 -51.1937 -54.1 -63.4697 -67.4993 -54.1 -57.5346 -67.4993 -72.147 -57.5346 -61.5185 -72.147 -75.9965 -61.5185 -65.1669 -75.9965 -78.6502 -65.1669 -67.9627 -78.6502 -80.2625 -67.9627 -69.9104 -80.2625 -81.0227 -69.9104 -71.1262 -81.0227 -81.1913 -71.1262 -71.7636 -81.1913 -81.1006 -71.7636 -72.0016 -81.1006 -81.0425 -72.0016 -72.0582 0 -2.23744 0 -1.71964 -2.23744 -4.65058 -1.71964 -3.53862 -4.65058 -6.91149 -3.53862 -5.3846 -6.91149 -9.04542 -5.3846 -7.1699 -9.04542 -11.0767 -7.1699 -8.88505 -11.0767 -13.0226 -8.88505 -10.535 -13.0226 -14.8952 -10.535 -12.1271 -14.8952 -16.7032 -12.1271 -13.6672 -16.7032 -18.4531 -13.6672 -15.1592 -18.4531 -20.1498 -15.1592 -16.6056 -20.1498 -21.7969 -16.6056 -18.0079 -21.7969 -23.3974 -18.0079 -19.3679 -23.3974 -24.9532 -19.3679 -20.6868 -24.9532 -26.4658 -20.6868 -21.9647 -26.4658 -27.9361 -21.9647 -23.2011 -27.9361 -29.3657 -23.2011 -24.3962 -29.3657 -30.7554 -24.3962 -25.5515 -30.7554 -32.1054 -25.5515 -26.6672 -32.1054 -33.4172 -26.6672 -27.7421 -33.4172 -34.693 -27.7421 -28.7872 -34.693 -35.9305 -28.7872 -29.8212 -35.9305 -37.1369 -29.8212 -30.8582 -37.1369 -38.3621 -30.8582 -31.9508 -38.3621 -39.6569 -31.9508 -33.1325 -39.6569 -41.0808 -33.1325 -34.4279 -41.0808 -42.6683 -34.4279 -35.8687 -42.6683 -44.4418 -35.8687 -37.4921 -44.4418 -46.4281 -37.4921 -39.3399 -46.4281 -48.6625 -39.3399 -41.459 -48.6625 -51.1937 -41.459 -43.8975 -51.1937 -54.1 -43.8975 -46.6934 -54.1 -57.5346 -46.6934 -49.8487 -57.5346 -61.5185 -49.8487 -53.2497 -61.5185 -65.1669 -53.2497 -56.5213 -65.1669 -67.9627 -56.5213 -59.223 -67.9627 -69.9104 -59.223 -61.207 -69.9104 -71.1262 -61.207 -62.5141 -71.1262 -71.7636 -62.5141 -63.2241 -71.7636 -72.0016 -63.2241 -63.4635 -72.0016 -72.0582 -63.4635 -63.4859 0 -1.71964 0 -1.29949 -1.71964 -3.53862 -1.29949 -2.67179 -3.53862 -5.3846 -2.67179 -4.07846 -5.3846 -7.1699 -4.07846 -5.48039 -7.1699 -8.88505 -5.48039 -6.85175 -8.88505 -10.535 -6.85175 -8.18638 -10.535 -12.1271 -8.18638 -9.48424 -12.1271 -13.6672 -9.48424 -10.7466 -13.6672 -15.1592 -10.7466 -11.9737 -15.1592 -16.6056 -11.9737 -13.165 -16.6056 -18.0079 -13.165 -14.3193 -18.0079 -19.3679 -14.3193 -15.4356 -19.3679 -20.6868 -15.4356 -16.5145 -20.6868 -21.9647 -16.5145 -17.5569 -21.9647 -23.2011 -17.5569 -18.562 -23.2011 -24.3962 -18.562 -19.525 -24.3962 -25.5515 -19.525 -20.4478 -25.5515 -26.6672 -20.4478 -21.3493 -26.6672 -27.7421 -21.3493 -22.2326 -27.7421 -28.7872 -22.2326 -23.1113 -28.7872 -29.8212 -23.1113 -24.0167 -29.8212 -30.8582 -24.0167 -24.9704 -30.8582 -31.9508 -24.9704 -25.9937 -31.9508 -33.1325 -25.9937 -27.1103 -33.1325 -34.4279 -27.1103 -28.3463 -34.4279 -35.8687 -28.3463 -29.7346 -35.8687 -37.4921 -29.7346 -31.3177 -37.4921 -39.3399 -31.3177 -33.1432 -39.3399 -41.459 -33.1432 -35.2571 -41.459 -43.8975 -35.2571 -37.6911 -43.8975 -46.6934 -37.6911 -40.439 -46.6934 -49.8487 -40.439 -43.4313 -49.8487 -53.2497 -43.4313 -46.5324 -53.2497 -56.5213 -46.5324 -49.5045 -56.5213 -59.223 -49.5045 -52.0138 -59.223 -61.207 -52.0138 -53.9061 -61.207 -62.5141 -53.9061 -55.1209 -62.5141 -63.2241 -55.1209 -55.7179 -63.2241 -63.4635 -55.7179 -55.8259 -63.4635 -63.4859 -55.8259 -55.7013 0 -1.29949 0 -0.920332 -1.29949 -2.67179 -0.920332 -1.88672 -2.67179 -4.07846 -1.88672 -2.88593 -4.07846 -5.48039 -2.88593 -3.90378 -5.48039 -6.85175 -3.90378 -4.92548 -6.85175 -8.18638 -4.92548 -5.93942 -8.18638 -9.48424 -5.93942 -6.9385 -9.48424 -10.7466 -6.9385 -7.9188 -10.7466 -11.9737 -7.9188 -8.87821 -11.9737 -13.165 -8.87821 -9.81416 -13.165 -14.3193 -9.81416 -10.7227 -14.3193 -15.4356 -10.7227 -11.598 -15.4356 -16.5145 -11.598 -12.4372 -16.5145 -17.5569 -12.4372 -13.2499 -17.5569 -18.562 -13.2499 -14.0406 -18.562 -19.525 -14.0406 -14.8054 -19.525 -20.4478 -14.8054 -15.5494 -20.4478 -21.3493 -15.5494 -16.2969 -21.3493 -22.2326 -16.2969 -17.0594 -22.2326 -23.1113 -17.0594 -17.8483 -23.1113 -24.0167 -17.8483 -18.6816 -24.0167 -24.9704 -18.6816 -19.578 -24.9704 -25.9937 -19.578 -20.5552 -25.9937 -27.1103 -20.5552 -21.6331 -27.1103 -28.3463 -21.6331 -22.8368 -28.3463 -29.7346 -22.8368 -24.1974 -29.7346 -31.3177 -24.1974 -25.752 -31.3177 -33.1432 -25.752 -27.5396 -33.1432 -35.2571 -27.5396 -29.5935 -35.2571 -37.6911 -29.5935 -31.9285 -37.6911 -40.439 -31.9285 -34.528 -40.439 -43.4313 -34.528 -37.3338 -43.4313 -46.5324 -37.3338 -40.24 -46.5324 -49.5045 -40.24 -43.0773 -49.5045 -52.0138 -43.0773 -45.6168 -52.0138 -53.9061 -45.6168 -47.5736 -53.9061 -55.1209 -47.5736 -48.7345 -55.1209 -55.7179 -48.7345 -49.2056 -55.7179 -55.8259 -49.2056 -49.1273 -55.8259 -55.7013 -49.1273 -48.7506 0 -0.920332 0 -0.535091 -0.920332 -1.88672 -0.535091 -1.09768 -1.88672 -2.88593 -1.09768 -1.70548 -2.88593 -3.90378 -1.70548 -2.36037 -3.90378 -4.92548 -2.36037 -3.04812 -4.92548 -5.93942 -3.04812 -3.75403 -5.93942 -6.9385 -3.75403 -4.46399 -6.9385 -7.9188 -4.46399 -5.16791 -7.9188 -8.87821 -5.16791 -5.86691 -8.87821 -9.81416 -5.86691 -6.55888 -9.81416 -10.7227 -6.55888 -7.23735 -10.7227 -11.598 -7.23735 -7.89601 -11.598 -12.4372 -7.89601 -8.53419 -12.4372 -13.2499 -8.53419 -9.16316 -13.2499 -14.0406 -9.16316 -9.79006 -14.0406 -14.8054 -9.79006 -10.4171 -14.8054 -15.5494 -10.4171 -11.051 -15.5494 -16.2969 -11.051 -11.7026 -16.2969 -17.0594 -11.7026 -12.3844 -17.0594 -17.8483 -12.3844 -13.1088 -17.8483 -18.6816 -13.1088 -13.8887 -18.6816 -19.578 -13.8887 -14.7387 -19.578 -20.5552 -14.7387 -15.6738 -20.5552 -21.6331 -15.6738 -16.7098 -21.6331 -22.8368 -16.7098 -17.8652 -22.8368 -24.1974 -17.8652 -19.1619 -24.1974 -25.752 -19.1619 -20.6242 -25.752 -27.5396 -20.6242 -22.2763 -27.5396 -29.5935 -22.2763 -24.1374 -29.5935 -31.9285 -24.1374 -26.2182 -31.9285 -34.528 -26.2182 -28.5163 -34.528 -37.3338 -28.5163 -31.0122 -37.3338 -40.24 -31.0122 -33.6564 -40.24 -43.0773 -33.6564 -36.3423 -43.0773 -45.6168 -36.3423 -38.8739 -45.6168 -47.5736 -38.8739 -40.987 -47.5736 -48.7345 -40.987 -42.4496 -48.7345 -49.2056 -42.4496 -43.1127 -49.2056 -49.1273 -43.1127 -43.005 -49.1273 -48.7506 -43.005 -42.3739 0 -0.535091 0 -0.0961439 -0.535091 -1.09768 -0.0961439 -0.253804 -1.09768 -1.70548 -0.253804 -0.501322 -1.70548 -2.36037 -0.501322 -0.829088 -2.36037 -3.04812 -0.829088 -1.2163 -3.04812 -3.75403 -1.2163 -1.64449 -3.75403 -4.46399 -1.64449 -2.09786 -4.46399 -5.16791 -2.09786 -2.56627 -5.16791 -5.86691 -2.56627 -3.0488 -5.86691 -6.55888 -3.0488 -3.54122 -6.55888 -7.23735 -3.54122 -4.03707 -7.23735 -7.89601 -4.03707 -4.53284 -7.89601 -8.53419 -4.53284 -5.02967 -8.53419 -9.16316 -5.02967 -5.53176 -9.16316 -9.79006 -5.53176 -6.04456 -9.79006 -10.4171 -6.04456 -6.57381 -10.4171 -11.051 -6.57381 -7.12497 -11.051 -11.7026 -7.12497 -7.70512 -11.7026 -12.3844 -7.70512 -8.32407 -12.3844 -13.1088 -8.32407 -8.99238 -13.1088 -13.8887 -8.99238 -9.71996 -13.8887 -14.7387 -9.71996 -10.5162 -14.7387 -15.6738 -10.5162 -11.3901 -15.6738 -16.7098 -11.3901 -12.3504 -16.7098 -17.8652 -12.3504 -13.4061 -17.8652 -19.1619 -13.4061 -14.567 -19.1619 -20.6242 -14.567 -15.8434 -20.6242 -22.2763 -15.8434 -17.2451 -22.2763 -24.1374 -17.2451 -18.7822 -24.1374 -26.2182 -18.7822 -20.4663 -26.2182 -28.5163 -20.4663 -22.3138 -28.5163 -31.0122 -22.3138 -24.3436 -31.0122 -33.6564 -24.3436 -26.5629 -33.6564 -36.3423 -26.5629 -28.9334 -36.3423 -38.8739 -28.9334 -31.3246 -38.8739 -40.987 -31.3246 -33.4796 -40.987 -42.4496 -33.4796 -35.0808 -42.4496 -43.1127 -35.0808 -35.9549 -43.1127 -43.005 -35.9549 -36.1286 -43.005 -42.3739 -36.1286 -35.7028 0 -0.0961439 0 0.32621 -0.0961439 -0.253804 0.32621 0.526789 -0.253804 -0.501322 0.526789 0.582664 -0.501322 -0.829088 0.582664 0.523669 -0.829088 -1.2163 0.523669 0.37736 -1.2163 -1.64449 0.37736 0.165523 -1.64449 -2.09786 0.165523 -0.0946521 -2.09786 -2.56627 -0.0946521 -0.390934 -2.56627 -3.0488 -0.390934 -0.714858 -3.0488 -3.54122 -0.714858 -1.06023 -3.54122 -4.03707 -1.06023 -1.42276 -4.03707 -4.53284 -1.42276 -1.80006 -4.53284 -5.02967 -1.80006 -2.19126 -5.02967 -5.53176 -2.19126 -2.59739 -5.53176 -6.04456 -2.59739 -3.0223 -6.04456 -6.57381 -3.0223 -3.47123 -6.57381 -7.12497 -3.47123 -3.94928 -7.12497 -7.70512 -3.94928 -4.46166 -7.70512 -8.32407 -4.46166 -5.01431 -8.32407 -8.99238 -5.01431 -5.61337 -8.99238 -9.71996 -5.61337 -6.26408 -9.71996 -10.5162 -6.26408 -6.97041 -10.5162 -11.3901 -6.97041 -7.735 -11.3901 -12.3504 -7.735 -8.55939 -12.3504 -13.4061 -8.55939 -9.44431 -13.4061 -14.567 -9.44431 -10.3898 -14.567 -15.8434 -10.3898 -11.3957 -15.8434 -17.2451 -11.3957 -12.462 -17.2451 -18.7822 -12.462 -13.5913 -18.7822 -20.4663 -13.5913 -14.7929 -20.4663 -22.3138 -14.7929 -16.0886 -22.3138 -24.3436 -16.0886 -17.5162 -24.3436 -26.5629 -17.5162 -19.1223 -26.5629 -28.9334 -19.1223 -20.9403 -28.9334 -31.3246 -20.9403 -22.9468 -31.3246 -33.4796 -22.9468 -24.9722 -33.4796 -35.0808 -24.9722 -26.6335 -35.0808 -35.9549 -26.6335 -27.5566 -35.9549 -36.1286 -27.5566 -27.7755 -36.1286 -35.7028 -27.7755 -27.549 0 0.32621 0 0.609976 0.32621 0.526789 0.609976 1.04236 0.526789 0.582664 1.04236 1.29088 0.582664 0.523669 1.29088 1.39635 0.523669 0.37736 1.39635 1.39222 0.37736 0.165523 1.39222 1.30625 0.165523 -0.0946521 1.30625 1.16172 -0.0946521 -0.390934 1.16172 0.975935 -0.390934 -0.714858 0.975935 0.760115 -0.714858 -1.06023 0.760115 0.520332 -1.06023 -1.42276 0.520332 0.259635 -1.42276 -1.80006 0.259635 -0.0202314 -1.80006 -2.19126 -0.0202314 -0.318307 -2.19126 -2.59739 -0.318307 -0.634823 -2.59739 -3.0223 -0.634823 -0.97157 -3.0223 -3.47123 -0.97157 -1.3314 -3.47123 -3.94928 -1.3314 -1.71729 -3.94928 -4.46166 -1.71729 -2.13195 -4.46166 -5.01431 -2.13195 -2.57786 -5.01431 -5.61337 -2.57786 -3.05711 -5.61337 -6.26408 -3.05711 -3.57094 -6.26408 -6.97041 -3.57094 -4.11939 -6.97041 -7.735 -4.11939 -4.70125 -7.735 -8.55939 -4.70125 -5.31423 -8.55939 -9.44431 -5.31423 -5.95501 -9.44431 -10.3898 -5.95501 -6.61942 -10.3898 -11.3957 -6.61942 -7.30255 -11.3957 -12.462 -7.30255 -7.99944 -12.462 -13.5913 -7.99944 -8.70667 -13.5913 -14.7929 -8.70667 -9.42559 -14.7929 -16.0886 -9.42559 -10.1677 -16.0886 -17.5162 -10.1677 -10.9618 -17.5162 -19.1223 -10.9618 -11.8579 -19.1223 -20.9403 -11.8579 -12.9206 -20.9403 -22.9468 -12.9206 -14.2171 -22.9468 -24.9722 -14.2171 -15.7713 -24.9722 -26.6335 -15.7713 -17.3551 -26.6335 -27.5566 -17.3551 -18.4253 -27.5566 -27.7755 -18.4253 -18.7191 -27.7755 -27.549 -18.7191 -18.5949 0 0.609976 0 0.436507 0.609976 1.04236 0.436507 0.869694 1.04236 1.29088 0.869694 1.16928 1.29088 1.39635 1.16928 1.30549 1.39635 1.39222 1.30549 1.33003 1.39222 1.30625 1.33003 1.28913 1.30625 1.16172 1.28913 1.20834 1.16172 0.975935 1.20834 1.10135 0.975935 0.760115 1.10135 0.97566 0.760115 0.520332 0.97566 0.835038 0.520332 0.259635 0.835038 0.681169 0.259635 -0.0202314 0.681169 0.514904 -0.0202314 -0.318307 0.514904 0.336778 -0.318307 -0.634823 0.336778 0.146906 -0.634823 -0.97157 0.146906 -0.0552026 -0.97157 -1.3314 -0.0552026 -0.270475 -1.3314 -1.71729 -0.270475 -0.499909 -1.71729 -2.13195 -0.499909 -0.744317 -2.13195 -2.57786 -0.744317 -1.00424 -2.57786 -3.05711 -1.00424 -1.27988 -3.05711 -3.57094 -1.27988 -1.57093 -3.57094 -4.11939 -1.57093 -1.87647 -4.11939 -4.70125 -1.87647 -2.19494 -4.70125 -5.31423 -2.19494 -2.52412 -5.31423 -5.95501 -2.52412 -2.8612 -5.95501 -6.61942 -2.8612 -3.20275 -6.61942 -7.30255 -3.20275 -3.54464 -7.30255 -7.99944 -3.54464 -3.88227 -7.99944 -8.70667 -3.88227 -4.21096 -8.70667 -9.42559 -4.21096 -4.52704 -9.42559 -10.1677 -4.52704 -4.83018 -10.1677 -10.9618 -4.83018 -5.12847 -10.9618 -11.8579 -5.12847 -5.4485 -11.8579 -12.9206 -5.4485 -5.84362 -12.9206 -14.2171 -5.84362 -6.35914 -14.2171 -15.7713 -6.35914 -7.00666 -15.7713 -17.3551 -7.00666 -7.87688 -17.3551 -18.4253 -7.87688 -8.85924 -18.4253 -18.7191 -8.85924 -9.73559 -18.7191 -18.5949 -9.73559 -9.56975 0 0.436507 0 -3.13446e-12 0.436507 0.869694 -3.13446e-12 -6.60476e-12 0.869694 1.16928 -6.60476e-12 -1.14905e-11 1.16928 1.30549 -1.14905e-11 -1.38424e-11 1.30549 1.33003 -1.38424e-11 -1.39357e-11 1.33003 1.28913 -1.39357e-11 -1.48082e-11 1.28913 1.20834 -1.48082e-11 -1.03225e-11 1.20834 1.10135 -1.03225e-11 -9.7066e-12 1.10135 0.97566 -9.7066e-12 -1.19055e-11 0.97566 0.835038 -1.19055e-11 -1.50153e-11 0.835038 0.681169 -1.50153e-11 -1.72901e-11 0.681169 0.514904 -1.72901e-11 -1.98073e-11 0.514904 0.336778 -1.98073e-11 -2.36118e-11 0.336778 0.146906 -2.36118e-11 -2.83302e-11 0.146906 -0.0552026 -2.83302e-11 -3.07841e-11 -0.0552026 -0.270475 -3.07841e-11 -2.59794e-11 -0.270475 -0.499909 -2.59794e-11 -1.77431e-11 -0.499909 -0.744317 -1.77431e-11 -1.50835e-11 -0.744317 -1.00424 -1.50835e-11 -1.1989e-11 -1.00424 -1.27988 -1.1989e-11 -8.40601e-12 -1.27988 -1.57093 -8.40601e-12 -2.94161e-12 -1.57093 -1.87647 -2.94161e-12 4.93878e-12 -1.87647 -2.19494 4.93878e-12 6.63984e-12 -2.19494 -2.52412 6.63984e-12 1.19088e-11 -2.52412 -2.8612 1.19088e-11 2.19219e-11 -2.8612 -3.20275 2.19219e-11 2.16204e-11 -3.20275 -3.54464 2.16204e-11 2.40564e-11 -3.54464 -3.88227 2.40564e-11 3.49405e-11 -3.88227 -4.21096 3.49405e-11 3.95863e-11 -4.21096 -4.52704 3.95863e-11 4.40857e-11 -4.52704 -4.83018 4.40857e-11 5.02241e-11 -4.83018 -5.12847 5.02241e-11 3.60542e-11 -5.12847 -5.4485 3.60542e-11 2.10166e-11 -5.4485 -5.84362 2.10166e-11 1.63515e-11 -5.84362 -6.35914 1.63515e-11 5.27115e-12 -6.35914 -7.00666 5.27115e-12 -5.34017e-12 -7.00666 -7.87688 -5.34017e-12 -2.5077e-11 -7.87688 -8.85924 -2.5077e-11 -3.53949e-11 -8.85924 -9.73559 -3.53949e-11 -3.39216e-11 -9.73559 -9.56975 -3.39216e-11 -3.34524e-11 0 -3.13446e-12 0 -0.436507 -3.13446e-12 -6.60476e-12 -0.436507 -0.869694 -6.60476e-12 -1.14905e-11 -0.869694 -1.16928 -1.14905e-11 -1.38424e-11 -1.16928 -1.30549 -1.38424e-11 -1.39357e-11 -1.30549 -1.33003 -1.39357e-11 -1.48082e-11 -1.33003 -1.28913 -1.48082e-11 -1.03225e-11 -1.28913 -1.20834 -1.03225e-11 -9.7066e-12 -1.20834 -1.10135 -9.7066e-12 -1.19055e-11 -1.10135 -0.97566 -1.19055e-11 -1.50153e-11 -0.97566 -0.835038 -1.50153e-11 -1.72901e-11 -0.835038 -0.681169 -1.72901e-11 -1.98073e-11 -0.681169 -0.514904 -1.98073e-11 -2.36118e-11 -0.514904 -0.336778 -2.36118e-11 -2.83302e-11 -0.336778 -0.146906 -2.83302e-11 -3.07841e-11 -0.146906 0.0552026 -3.07841e-11 -2.59794e-11 0.0552026 0.270475 -2.59794e-11 -1.77431e-11 0.270475 0.499909 -1.77431e-11 -1.50835e-11 0.499909 0.744317 -1.50835e-11 -1.1989e-11 0.744317 1.00424 -1.1989e-11 -8.40601e-12 1.00424 1.27988 -8.40601e-12 -2.94161e-12 1.27988 1.57093 -2.94161e-12 4.93878e-12 1.57093 1.87647 4.93878e-12 6.63984e-12 1.87647 2.19494 6.63984e-12 1.19088e-11 2.19494 2.52412 1.19088e-11 2.19219e-11 2.52412 2.8612 2.19219e-11 2.16204e-11 2.8612 3.20275 2.16204e-11 2.40564e-11 3.20275 3.54464 2.40564e-11 3.49405e-11 3.54464 3.88227 3.49405e-11 3.95863e-11 3.88227 4.21096 3.95863e-11 4.40857e-11 4.21096 4.52704 4.40857e-11 5.02241e-11 4.52704 4.83018 5.02241e-11 3.60542e-11 4.83018 5.12847 3.60542e-11 2.10166e-11 5.12847 5.4485 2.10166e-11 1.63515e-11 5.4485 5.84362 1.63515e-11 5.27115e-12 5.84362 6.35914 5.27115e-12 -5.34017e-12 6.35914 7.00666 -5.34017e-12 -2.5077e-11 7.00666 7.87688 -2.5077e-11 -3.53949e-11 7.87688 8.85924 -3.53949e-11 -3.39216e-11 8.85924 9.73559 -3.39216e-11 -3.34524e-11 9.73559 9.56975 0 -0.436507 0 -0.609976 -0.436507 -0.869694 -0.609976 -1.04236 -0.869694 -1.16928 -1.04236 -1.29088 -1.16928 -1.30549 -1.29088 -1.39635 -1.30549 -1.33003 -1.39635 -1.39222 -1.33003 -1.28913 -1.39222 -1.30625 -1.28913 -1.20834 -1.30625 -1.16172 -1.20834 -1.10135 -1.16172 -0.975935 -1.10135 -0.97566 -0.975935 -0.760115 -0.97566 -0.835038 -0.760115 -0.520332 -0.835038 -0.681169 -0.520332 -0.259635 -0.681169 -0.514904 -0.259635 0.0202314 -0.514904 -0.336778 0.0202314 0.318307 -0.336778 -0.146906 0.318307 0.634823 -0.146906 0.0552026 0.634823 0.97157 0.0552026 0.270475 0.97157 1.3314 0.270475 0.499909 1.3314 1.71729 0.499909 0.744317 1.71729 2.13195 0.744317 1.00424 2.13195 2.57786 1.00424 1.27988 2.57786 3.05711 1.27988 1.57093 3.05711 3.57094 1.57093 1.87647 3.57094 4.11939 1.87647 2.19494 4.11939 4.70125 2.19494 2.52412 4.70125 5.31423 2.52412 2.8612 5.31423 5.95501 2.8612 3.20275 5.95501 6.61942 3.20275 3.54464 6.61942 7.30255 3.54464 3.88227 7.30255 7.99944 3.88227 4.21096 7.99944 8.70667 4.21096 4.52704 8.70667 9.42559 4.52704 4.83018 9.42559 10.1677 4.83018 5.12847 10.1677 10.9618 5.12847 5.4485 10.9618 11.8579 5.4485 5.84362 11.8579 12.9206 5.84362 6.35914 12.9206 14.2171 6.35914 7.00666 14.2171 15.7713 7.00666 7.87688 15.7713 17.3551 7.87688 8.85924 17.3551 18.4253 8.85924 9.73559 18.4253 18.7191 9.73559 9.56975 18.7191 18.5949 0 -0.609976 0 -0.32621 -0.609976 -1.04236 -0.32621 -0.526789 -1.04236 -1.29088 -0.526789 -0.582664 -1.29088 -1.39635 -0.582664 -0.523669 -1.39635 -1.39222 -0.523669 -0.37736 -1.39222 -1.30625 -0.37736 -0.165523 -1.30625 -1.16172 -0.165523 0.0946521 -1.16172 -0.975935 0.0946521 0.390934 -0.975935 -0.760115 0.390934 0.714858 -0.760115 -0.520332 0.714858 1.06023 -0.520332 -0.259635 1.06023 1.42276 -0.259635 0.0202314 1.42276 1.80006 0.0202314 0.318307 1.80006 2.19126 0.318307 0.634823 2.19126 2.59739 0.634823 0.97157 2.59739 3.0223 0.97157 1.3314 3.0223 3.47123 1.3314 1.71729 3.47123 3.94928 1.71729 2.13195 3.94928 4.46166 2.13195 2.57786 4.46166 5.01431 2.57786 3.05711 5.01431 5.61337 3.05711 3.57094 5.61337 6.26408 3.57094 4.11939 6.26408 6.97041 4.11939 4.70125 6.97041 7.735 4.70125 5.31423 7.735 8.55939 5.31423 5.95501 8.55939 9.44431 5.95501 6.61942 9.44431 10.3898 6.61942 7.30255 10.3898 11.3957 7.30255 7.99944 11.3957 12.462 7.99944 8.70667 12.462 13.5913 8.70667 9.42559 13.5913 14.7929 9.42559 10.1677 14.7929 16.0886 10.1677 10.9618 16.0886 17.5162 10.9618 11.8579 17.5162 19.1223 11.8579 12.9206 19.1223 20.9403 12.9206 14.2171 20.9403 22.9468 14.2171 15.7713 22.9468 24.9722 15.7713 17.3551 24.9722 26.6335 17.3551 18.4253 26.6335 27.5566 18.4253 18.7191 27.5566 27.7755 18.7191 18.5949 27.7755 27.549 0 -0.32621 0 0.0961439 -0.32621 -0.526789 0.0961439 0.253804 -0.526789 -0.582664 0.253804 0.501322 -0.582664 -0.523669 0.501322 0.829088 -0.523669 -0.37736 0.829088 1.2163 -0.37736 -0.165523 1.2163 1.64449 -0.165523 0.0946521 1.64449 2.09786 0.0946521 0.390934 2.09786 2.56627 0.390934 0.714858 2.56627 3.0488 0.714858 1.06023 3.0488 3.54122 1.06023 1.42276 3.54122 4.03707 1.42276 1.80006 4.03707 4.53284 1.80006 2.19126 4.53284 5.02967 2.19126 2.59739 5.02967 5.53176 2.59739 3.0223 5.53176 6.04456 3.0223 3.47123 6.04456 6.57381 3.47123 3.94928 6.57381 7.12497 3.94928 4.46166 7.12497 7.70512 4.46166 5.01431 7.70512 8.32407 5.01431 5.61337 8.32407 8.99238 5.61337 6.26408 8.99238 9.71996 6.26408 6.97041 9.71996 10.5162 6.97041 7.735 10.5162 11.3901 7.735 8.55939 11.3901 12.3504 8.55939 9.44431 12.3504 13.4061 9.44431 10.3898 13.4061 14.567 10.3898 11.3957 14.567 15.8434 11.3957 12.462 15.8434 17.2451 12.462 13.5913 17.2451 18.7822 13.5913 14.7929 18.7822 20.4663 14.7929 16.0886 20.4663 22.3138 16.0886 17.5162 22.3138 24.3436 17.5162 19.1223 24.3436 26.5629 19.1223 20.9403 26.5629 28.9334 20.9403 22.9468 28.9334 31.3246 22.9468 24.9722 31.3246 33.4796