# vtk DataFile Version 3.0
#This file was generated by the deal.II library on 2015/9/1 at 17:12:59
ASCII
DATASET UNSTRUCTURED_GRID

POINTS 11912 double
0 0 0
0.05 0 0
0 0.05 0
0.05 0.05 0
0.05 0 0
0.1 0 0
0.05 0.05 0
0.1 0.05 0
0.1 0 0
0.15 0 0
0.1 0.05 0
0.15 0.05 0
0.15 0 0
0.2 0 0
0.15 0.05 0
0.2 0.05 0
0.2 0 0
0.25 0 0
0.2 0.05 0
0.25 0.05 0
0.25 0 0
0.3 0 0
0.25 0.05 0
0.3 0.05 0
0.3 0 0
0.35 0 0
0.3 0.05 0
0.35 0.05 0
0.35 0 0
0.4 0 0
0.35 0.05 0
0.4 0.05 0
0.4 0 0
0.45 0 0
0.4 0.05 0
0.45 0.05 0
0.45 0 0
0.5 0 0
0.45 0.05 0
0.5 0.05 0
0.5 0 0
0.55 0 0
0.5 0.05 0
0.55 0.05 0
0.55 0 0
0.6 0 0
0.55 0.05 0
0.6 0.05 0
0.6 0 0
0.65 0 0
0.6 0.05 0
0.65 0.05 0
0.65 0 0
0.7 0 0
0.65 0.05 0
0.7 0.05 0
0.7 0 0
0.75 0 0
0.7 0.05 0
0.75 0.05 0
0.75 0 0
0.8 0 0
0.75 0.05 0
0.8 0.05 0
0.8 0 0
0.85 0 0
0.8 0.05 0
0.85 0.05 0
0.85 0 0
0.9 0 0
0.85 0.05 0
0.9 0.05 0
0.9 0 0
0.95 0 0
0.9 0.05 0
0.95 0.05 0
0.95 0 0
1 0 0
0.95 0.05 0
1 0.05 0
1 0 0
1.05 0 0
1 0.05 0
1.05 0.05 0
1.05 0 0
1.1 0 0
1.05 0.05 0
1.1 0.05 0
1.1 0 0
1.15 0 0
1.1 0.05 0
1.15 0.05 0
1.15 0 0
1.2 0 0
1.15 0.05 0
1.2 0.05 0
1.2 0 0
1.25 0 0
1.2 0.05 0
1.25 0.05 0
1.25 0 0
1.3 0 0
1.25 0.05 0
1.3 0.05 0
0.1 0.05 0
0.15 0.05 0
0.1 0.1 0
0.15 0.1 0
0.15 0.05 0
0.2 0.05 0
0.15 0.1 0
0.2 0.1 0
0.2 0.05 0
0.25 0.05 0
0.2 0.1 0
0.25 0.1 0
0.25 0.05 0
0.3 0.05 0
0.25 0.1 0
0.3 0.1 0
0.2 0.1 0
0.25 0.1 0
0.2 0.15 0
0.25 0.15 0
0.25 0.1 0
0.3 0.1 0
0.25 0.15 0
0.3 0.15 0
0.85 0.45 0
0.9 0.45 0
0.85 0.5 0
0.9 0.5 0
0.9 0.45 0
0.95 0.45 0
0.9 0.5 0
0.95 0.5 0
1.45 0.45 0
1.5 0.45 0
1.45 0.5 0
1.5 0.5 0
1.9 0.45 0
1.95 0.45 0
1.9 0.5 0
1.95 0.5 0
1.95 0.45 0
2 0.45 0
1.95 0.5 0
2 0.5 0
0.65 0.5 0
0.7 0.5 0
0.65 0.55 0
0.7 0.55 0
0.85 0.5 0
0.9 0.5 0
0.85 0.55 0
0.9 0.55 0
0.9 0.5 0
0.95 0.5 0
0.9 0.55 0
0.95 0.55 0
1.9 0.5 0
1.95 0.5 0
1.9 0.55 0
1.95 0.55 0
1.95 0.5 0
2 0.5 0
1.95 0.55 0
2 0.55 0
0.2 0.85 0
0.25 0.85 0
0.2 0.9 0
0.25 0.9 0
0.25 0.85 0
0.3 0.85 0
0.25 0.9 0
0.3 0.9 0
0.1 0.9 0
0.15 0.9 0
0.1 0.95 0
0.15 0.95 0
0.15 0.9 0
0.2 0.9 0
0.15 0.95 0
0.2 0.95 0
0.2 0.9 0
0.25 0.9 0
0.2 0.95 0
0.25 0.95 0
0.25 0.9 0
0.3 0.9 0
0.25 0.95 0
0.3 0.95 0
0 0.95 0
0.05 0.95 0
0 1 0
0.05 1 0
0.05 0.95 0
0.1 0.95 0
0.05 1 0
0.1 1 0
0.1 0.95 0
0.15 0.95 0
0.1 1 0
0.15 1 0
0.15 0.95 0
0.2 0.95 0
0.15 1 0
0.2 1 0
0.2 0.95 0
0.25 0.95 0
0.2 1 0
0.25 1 0
0.25 0.95 0
0.3 0.95 0
0.25 1 0
0.3 1 0
0.3 0.95 0
0.35 0.95 0
0.3 1 0
0.35 1 0
0.35 0.95 0
0.4 0.95 0
0.35 1 0
0.4 1 0
0.4 0.95 0
0.45 0.95 0
0.4 1 0
0.45 1 0
0.45 0.95 0
0.5 0.95 0
0.45 1 0
0.5 1 0
0.5 0.95 0
0.55 0.95 0
0.5 1 0
0.55 1 0
0.55 0.95 0
0.6 0.95 0
0.55 1 0
0.6 1 0
0.6 0.95 0
0.65 0.95 0
0.6 1 0
0.65 1 0
0.65 0.95 0
0.7 0.95 0
0.65 1 0
0.7 1 0
0.7 0.95 0
0.75 0.95 0
0.7 1 0
0.75 1 0
0.75 0.95 0
0.8 0.95 0
0.75 1 0
0.8 1 0
0.8 0.95 0
0.85 0.95 0
0.8 1 0
0.85 1 0
0.85 0.95 0
0.9 0.95 0
0.85 1 0
0.9 1 0
0.9 0.95 0
0.95 0.95 0
0.9 1 0
0.95 1 0
0.95 0.95 0
1 0.95 0
0.95 1 0
1 1 0
1 0.95 0
1.05 0.95 0
1 1 0
1.05 1 0
1.05 0.95 0
1.1 0.95 0
1.05 1 0
1.1 1 0
1.1 0.95 0
1.15 0.95 0
1.1 1 0
1.15 1 0
1.15 0.95 0
1.2 0.95 0
1.15 1 0
1.2 1 0
1.2 0.95 0
1.25 0.95 0
1.2 1 0
1.25 1 0
1.25 0.95 0
1.3 0.95 0
1.25 1 0
1.3 1 0
1.3 0 0
1.325 0 0
1.3 0.025 0
1.325 0.025 0
1.325 0 0
1.35 0 0
1.325 0.025 0
1.35 0.025 0
1.3 0.025 0
1.325 0.025 0
1.3 0.05 0
1.325 0.05 0
1.325 0.025 0
1.35 0.025 0
1.325 0.05 0
1.35 0.05 0
1.35 0 0
1.375 0 0
1.35 0.025 0
1.375 0.025 0
1.375 0 0
1.4 0 0
1.375 0.025 0
1.4 0.025 0
1.35 0.025 0
1.375 0.025 0
1.35 0.05 0
1.375 0.05 0
1.375 0.025 0
1.4 0.025 0
1.375 0.05 0
1.4 0.05 0
1.4 0 0
1.425 0 0
1.4 0.025 0
1.425 0.025 0
1.425 0 0
1.45 0 0
1.425 0.025 0
1.45 0.025 0
1.4 0.025 0
1.425 0.025 0
1.4 0.05 0
1.425 0.05 0
1.425 0.025 0
1.45 0.025 0
1.425 0.05 0
1.45 0.05 0
1.45 0 0
1.475 0 0
1.45 0.025 0
1.475 0.025 0
1.475 0 0
1.5 0 0
1.475 0.025 0
1.5 0.025 0
1.45 0.025 0
1.475 0.025 0
1.45 0.05 0
1.475 0.05 0
1.475 0.025 0
1.5 0.025 0
1.475 0.05 0
1.5 0.05 0
1.5 0 0
1.525 0 0
1.5 0.025 0
1.525 0.025 0
1.525 0 0
1.55 0 0
1.525 0.025 0
1.55 0.025 0
1.5 0.025 0
1.525 0.025 0
1.5 0.05 0
1.525 0.05 0
1.525 0.025 0
1.55 0.025 0
1.525 0.05 0
1.55 0.05 0
1.55 0 0
1.575 0 0
1.55 0.025 0
1.575 0.025 0
1.575 0 0
1.6 0 0
1.575 0.025 0
1.6 0.025 0
1.55 0.025 0
1.575 0.025 0
1.55 0.05 0
1.575 0.05 0
1.575 0.025 0
1.6 0.025 0
1.575 0.05 0
1.6 0.05 0
1.6 0 0
1.625 0 0
1.6 0.025 0
1.625 0.025 0
1.625 0 0
1.65 0 0
1.625 0.025 0
1.65 0.025 0
1.6 0.025 0
1.625 0.025 0
1.6 0.05 0
1.625 0.05 0
1.625 0.025 0
1.65 0.025 0
1.625 0.05 0
1.65 0.05 0
1.65 0 0
1.675 0 0
1.65 0.025 0
1.675 0.025 0
1.675 0 0
1.7 0 0
1.675 0.025 0
1.7 0.025 0
1.65 0.025 0
1.675 0.025 0
1.65 0.05 0
1.675 0.05 0
1.675 0.025 0
1.7 0.025 0
1.675 0.05 0
1.7 0.05 0
1.7 0 0
1.725 0 0
1.7 0.025 0
1.725 0.025 0
1.725 0 0
1.75 0 0
1.725 0.025 0
1.75 0.025 0
1.7 0.025 0
1.725 0.025 0
1.7 0.05 0
1.725 0.05 0
1.725 0.025 0
1.75 0.025 0
1.725 0.05 0
1.75 0.05 0
1.75 0 0
1.775 0 0
1.75 0.025 0
1.775 0.025 0
1.775 0 0
1.8 0 0
1.775 0.025 0
1.8 0.025 0
1.75 0.025 0
1.775 0.025 0
1.75 0.05 0
1.775 0.05 0
1.775 0.025 0
1.8 0.025 0
1.775 0.05 0
1.8 0.05 0
1.8 0 0
1.825 0 0
1.8 0.025 0
1.825 0.025 0
1.825 0 0
1.85 0 0
1.825 0.025 0
1.85 0.025 0
1.8 0.025 0
1.825 0.025 0
1.8 0.05 0
1.825 0.05 0
1.825 0.025 0
1.85 0.025 0
1.825 0.05 0
1.85 0.05 0
1.85 0 0
1.875 0 0
1.85 0.025 0
1.875 0.025 0
1.875 0 0
1.9 0 0
1.875 0.025 0
1.9 0.025 0
1.85 0.025 0
1.875 0.025 0
1.85 0.05 0
1.875 0.05 0
1.875 0.025 0
1.9 0.025 0
1.875 0.05 0
1.9 0.05 0
1.9 0 0
1.925 0 0
1.9 0.025 0
1.925 0.025 0
1.925 0 0
1.95 0 0
1.925 0.025 0
1.95 0.025 0
1.9 0.025 0
1.925 0.025 0
1.9 0.05 0
1.925 0.05 0
1.925 0.025 0
1.95 0.025 0
1.925 0.05 0
1.95 0.05 0
1.95 0 0
1.975 0 0
1.95 0.025 0
1.975 0.025 0
1.975 0 0
2 0 0
1.975 0.025 0
2 0.025 0
1.95 0.025 0
1.975 0.025 0
1.95 0.05 0
1.975 0.05 0
1.975 0.025 0
2 0.025 0
1.975 0.05 0
2 0.05 0
0 0.05 0
0.025 0.05 0
0 0.075 0
0.025 0.075 0
0.025 0.05 0
0.05 0.05 0
0.025 0.075 0
0.05 0.075 0
0 0.075 0
0.025 0.075 0
0 0.1 0
0.025 0.1 0
0.025 0.075 0
0.05 0.075 0
0.025 0.1 0
0.05 0.1 0
0.05 0.05 0
0.075 0.05 0
0.05 0.075 0
0.075 0.075 0
0.075 0.05 0
0.1 0.05 0
0.075 0.075 0
0.1 0.075 0
0.05 0.075 0
0.075 0.075 0
0.05 0.1 0
0.075 0.1 0
0.075 0.075 0
0.1 0.075 0
0.075 0.1 0
0.1 0.1 0
0.3 0.05 0
0.325 0.05 0
0.3 0.075 0
0.325 0.075 0
0.325 0.05 0
0.35 0.05 0
0.325 0.075 0
0.35 0.075 0
0.3 0.075 0
0.325 0.075 0
0.3 0.1 0
0.325 0.1 0
0.325 0.075 0
0.35 0.075 0
0.325 0.1 0
0.35 0.1 0
0.35 0.05 0
0.375 0.05 0
0.35 0.075 0
0.375 0.075 0
0.375 0.05 0
0.4 0.05 0
0.375 0.075 0
0.4 0.075 0
0.35 0.075 0
0.375 0.075 0
0.35 0.1 0
0.375 0.1 0
0.375 0.075 0
0.4 0.075 0
0.375 0.1 0
0.4 0.1 0
0.4 0.05 0
0.425 0.05 0
0.4 0.075 0
0.425 0.075 0
0.425 0.05 0
0.45 0.05 0
0.425 0.075 0
0.45 0.075 0
0.4 0.075 0
0.425 0.075 0
0.4 0.1 0
0.425 0.1 0
0.425 0.075 0
0.45 0.075 0
0.425 0.1 0
0.45 0.1 0
0.45 0.05 0
0.475 0.05 0
0.45 0.075 0
0.475 0.075 0
0.475 0.05 0
0.5 0.05 0
0.475 0.075 0
0.5 0.075 0
0.45 0.075 0
0.475 0.075 0
0.45 0.1 0
0.475 0.1 0
0.475 0.075 0
0.5 0.075 0
0.475 0.1 0
0.5 0.1 0
0.5 0.05 0
0.525 0.05 0
0.5 0.075 0
0.525 0.075 0
0.525 0.05 0
0.55 0.05 0
0.525 0.075 0
0.55 0.075 0
0.5 0.075 0
0.525 0.075 0
0.5 0.1 0
0.525 0.1 0
0.525 0.075 0
0.55 0.075 0
0.525 0.1 0
0.55 0.1 0
0.55 0.05 0
0.575 0.05 0
0.55 0.075 0
0.575 0.075 0
0.575 0.05 0
0.6 0.05 0
0.575 0.075 0
0.6 0.075 0
0.55 0.075 0
0.575 0.075 0
0.55 0.1 0
0.575 0.1 0
0.575 0.075 0
0.6 0.075 0
0.575 0.1 0
0.6 0.1 0
0.6 0.05 0
0.625 0.05 0
0.6 0.075 0
0.625 0.075 0
0.625 0.05 0
0.65 0.05 0
0.625 0.075 0
0.65 0.075 0
0.6 0.075 0
0.625 0.075 0
0.6 0.1 0
0.625 0.1 0
0.625 0.075 0
0.65 0.075 0
0.625 0.1 0
0.65 0.1 0
0.65 0.05 0
0.675 0.05 0
0.65 0.075 0
0.675 0.075 0
0.675 0.05 0
0.7 0.05 0
0.675 0.075 0
0.7 0.075 0
0.65 0.075 0
0.675 0.075 0
0.65 0.1 0
0.675 0.1 0
0.675 0.075 0
0.7 0.075 0
0.675 0.1 0
0.7 0.1 0
0.7 0.05 0
0.725 0.05 0
0.7 0.075 0
0.725 0.075 0
0.725 0.05 0
0.75 0.05 0
0.725 0.075 0
0.75 0.075 0
0.7 0.075 0
0.725 0.075 0
0.7 0.1 0
0.725 0.1 0
0.725 0.075 0
0.75 0.075 0
0.725 0.1 0
0.75 0.1 0
0.75 0.05 0
0.775 0.05 0
0.75 0.075 0
0.775 0.075 0
0.775 0.05 0
0.8 0.05 0
0.775 0.075 0
0.8 0.075 0
0.75 0.075 0
0.775 0.075 0
0.75 0.1 0
0.775 0.1 0
0.775 0.075 0
0.8 0.075 0
0.775 0.1 0
0.8 0.1 0
0.8 0.05 0
0.825 0.05 0
0.8 0.075 0
0.825 0.075 0
0.825 0.05 0
0.85 0.05 0
0.825 0.075 0
0.85 0.075 0
0.8 0.075 0
0.825 0.075 0
0.8 0.1 0
0.825 0.1 0
0.825 0.075 0
0.85 0.075 0
0.825 0.1 0
0.85 0.1 0
0.85 0.05 0
0.875 0.05 0
0.85 0.075 0
0.875 0.075 0
0.875 0.05 0
0.9 0.05 0
0.875 0.075 0
0.9 0.075 0
0.85 0.075 0
0.875 0.075 0
0.85 0.1 0
0.875 0.1 0
0.875 0.075 0
0.9 0.075 0
0.875 0.1 0
0.9 0.1 0
0.9 0.05 0
0.925 0.05 0
0.9 0.075 0
0.925 0.075 0
0.925 0.05 0
0.95 0.05 0
0.925 0.075 0
0.95 0.075 0
0.9 0.075 0
0.925 0.075 0
0.9 0.1 0
0.925 0.1 0
0.925 0.075 0
0.95 0.075 0
0.925 0.1 0
0.95 0.1 0
0.95 0.05 0
0.975 0.05 0
0.95 0.075 0
0.975 0.075 0
0.975 0.05 0
1 0.05 0
0.975 0.075 0
1 0.075 0
0.95 0.075 0
0.975 0.075 0
0.95 0.1 0
0.975 0.1 0
0.975 0.075 0
1 0.075 0
0.975 0.1 0
1 0.1 0
1 0.05 0
1.025 0.05 0
1 0.075 0
1.025 0.075 0
1.025 0.05 0
1.05 0.05 0
1.025 0.075 0
1.05 0.075 0
1 0.075 0
1.025 0.075 0
1 0.1 0
1.025 0.1 0
1.025 0.075 0
1.05 0.075 0
1.025 0.1 0
1.05 0.1 0
1.05 0.05 0
1.075 0.05 0
1.05 0.075 0
1.075 0.075 0
1.075 0.05 0
1.1 0.05 0
1.075 0.075 0
1.1 0.075 0
1.05 0.075 0
1.075 0.075 0
1.05 0.1 0
1.075 0.1 0
1.075 0.075 0
1.1 0.075 0
1.075 0.1 0
1.1 0.1 0
1.1 0.05 0
1.125 0.05 0
1.1 0.075 0
1.125 0.075 0
1.125 0.05 0
1.15 0.05 0
1.125 0.075 0
1.15 0.075 0
1.1 0.075 0
1.125 0.075 0
1.1 0.1 0
1.125 0.1 0
1.125 0.075 0
1.15 0.075 0
1.125 0.1 0
1.15 0.1 0
1.15 0.05 0
1.175 0.05 0
1.15 0.075 0
1.175 0.075 0
1.175 0.05 0
1.2 0.05 0
1.175 0.075 0
1.2 0.075 0
1.15 0.075 0
1.175 0.075 0
1.15 0.1 0
1.175 0.1 0
1.175 0.075 0
1.2 0.075 0
1.175 0.1 0
1.2 0.1 0
1.2 0.05 0
1.225 0.05 0
1.2 0.075 0
1.225 0.075 0
1.225 0.05 0
1.25 0.05 0
1.225 0.075 0
1.25 0.075 0
1.2 0.075 0
1.225 0.075 0
1.2 0.1 0
1.225 0.1 0
1.225 0.075 0
[...]
POINT_DATA 11912
SCALARS x_displacement double 1
LOOKUP_TABLE default
0 -1.49905 0 -0.863138 -1.49905 -2.61708 -0.863138 -1.76351 -2.61708 -3.53157 -1.76351 -2.54816 -3.53157 -4.31128 -2.54816 -3.24352 -4.31128 -5.00431 -3.24352 -3.86426 -5.00431 -5.65892 -3.86426 -4.43018 -5.65892 -6.31473 -4.43018 -4.98066 -6.31473 -6.99307 -4.98066 -5.53758 -6.99307 -7.67868 -5.53758 -6.1237 -7.67868 -8.33672 -6.1237 -6.73883 -8.33672 -8.94345 -6.73883 -7.37373 -8.94345 -9.50529 -7.37373 -8.01931 -9.50529 -10.0457 -8.01931 -8.66074 -10.0457 -10.594 -8.66074 -9.27924 -10.594 -11.1707 -9.27924 -9.8653 -11.1707 -11.7739 -9.8653 -10.4202 -11.7739 -12.3864 -10.4202 -10.9529 -12.3864 -12.9922 -10.9529 -11.4735 -12.9922 -13.5816 -11.4735 -11.9882 -13.5816 -14.1514 -11.9882 -12.4991 -14.1514 -14.7066 -12.4991 -13.0032 -14.7066 -15.2662 -13.0032 -13.4939 -15.2662 -15.853 -13.4939 -13.9707 -15.853 -16.454 -13.9707 -14.4295 -16.454 -16.9894 -14.4295 -14.8512 -16.9894 -17.3716 -14.8512 -15.2257 -1.76351 -2.54816 -1.18048 -1.78309 -2.54816 -3.24352 -1.78309 -2.34171 -3.24352 -3.86426 -2.34171 -2.84584 -3.86426 -4.43018 -2.84584 -3.2808 -2.34171 -2.84584 -1.55177 -1.95825 -2.84584 -3.2808 -1.95825 -2.31681 -1.0065 -1.12031 -0.0134399 -0.0130679 -1.12031 -1.17642 -0.0130679 -0.0131068 -1.33986 -1.34515 -0.00495239 -0.00411054 -2.0768 -2.33515 -0.000848732 -0.00102106 -2.33515 -2.40338 -0.00102106 -0.00112522 -0.196843 -0.111477 0.321752 0.46113 -0.0134399 -0.0130679 0.979669 1.094 -0.0130679 -0.0131068 1.094 1.15013 -0.000848732 -0.00102106 2.07466 2.33284 -0.00102106 -0.00112522 2.33284 2.40092 1.5334 1.94019 2.33346 2.83702 1.94019 2.29871 2.83702 3.27118 1.17363 1.77536 1.76581 2.55072 1.77536 2.33346 2.55072 3.24567 2.33346 2.83702 3.24567 3.8654 2.83702 3.27118 3.8654 4.43 0 0.864408 0 1.50796 0.864408 1.76581 1.50796 2.63049 1.76581 2.55072 2.63049 3.5463 2.55072 3.24567 3.5463 4.32533 3.24567 3.8654 4.32533 5.01646 3.8654 4.43 5.01646 5.66844 4.43 4.9791 5.66844 6.32107 4.9791 5.53447 6.32107 6.99596 5.53447 6.11904 6.99596 7.67807 6.11904 6.73273 7.67807 8.33247 6.73273 7.36655 8.33247 8.93547 7.36655 8.01131 8.93547 9.49394 8.01131 8.65214 9.49394 10.0315 8.65214 9.2703 10.0315 10.5777 9.2703 9.85627 10.5777 11.1524 9.85627 10.4113 11.1524 11.754 10.4113 10.944 11.754 12.3658 10.944 11.4646 12.3658 12.9719 11.4646 11.979 12.9719 13.5627 11.979 12.4897 13.5627 14.1344 12.4897 12.9938 14.1344 14.692 12.9938 13.4848 14.692 15.2541 13.4848 13.962 15.2541 15.8432 13.962 14.421 15.8432 16.4456 14.421 14.8427 16.4456 16.9813 14.8427 15.2171 16.9813 17.3632 -17.3716 -17.5198 -16.2986 -16.4347 -17.5198 -17.6314 -16.4347 -16.5857 -16.2986 -16.4347 -15.2257 -15.3987 -16.4347 -16.5857 -15.3987 -15.5504 -17.6314 -17.758 -16.5857 -16.7425 -17.758 -17.8279 -16.7425 -16.8884 -16.5857 -16.7425 -15.5504 -15.6841 -16.7425 -16.8884 -15.6841 -15.8027 -17.8279 -17.8825 -16.8884 -16.9773 -17.8825 -18.298 -16.9773 -17.0119 -16.8884 -16.9773 -15.8027 -15.9188 -16.9773 -17.0119 -15.9188 -16.0165 -18.298 -18.5695 -17.0119 -17.1563 -18.5695 -18.7699 -17.1563 -17.4446 -17.0119 -17.1563 -16.0165 -16.0888 -17.1563 -17.4446 -16.0888 -16.1658 -18.7699 -18.9811 -17.4446 -17.665 -18.9811 -19.1663 -17.665 -17.8556 -17.4446 -17.665 -16.1658 -16.4033 -17.665 -17.8556 -16.4033 -16.5933 -19.1663 -19.3279 -17.8556 -18.0277 -19.3279 -19.4723 -18.0277 -18.1826 -17.8556 -18.0277 -16.5933 -16.7621 -18.0277 -18.1826 -16.7621 -16.9335 -19.4723 -19.6001 -18.1826 -18.3226 -19.6001 -19.7114 -18.3226 -18.445 -18.1826 -18.3226 -16.9335 -17.0835 -18.3226 -18.445 -17.0835 -17.2154 -19.7114 -19.8053 -18.445 -18.551 -19.8053 -19.8826 -18.551 -18.6417 -18.445 -18.551 -17.2154 -17.3325 -18.551 -18.6417 -17.3325 -17.435 -19.8826 -19.9443 -18.6417 -18.7175 -19.9443 -19.9911 -18.7175 -18.7791 -18.6417 -18.7175 -17.435 -17.5235 -18.7175 -18.7791 -17.5235 -17.5982 -19.9911 -20.0235 -18.7791 -18.8272 -20.0235 -20.0428 -18.8272 -18.8626 -18.7791 -18.8272 -17.5982 -17.6595 -18.8272 -18.8626 -17.6595 -17.7081 -20.0428 -20.0504 -18.8626 -18.8869 -20.0504 -20.0486 -18.8869 -18.9016 -18.8626 -18.8869 -17.7081 -17.7451 -18.8869 -18.9016 -17.7451 -17.7717 -20.0486 -20.0401 -18.9016 -18.9088 -20.0401 -20.0282 -18.9088 -18.9107 -18.9016 -18.9088 -17.7717 -17.7895 -18.9088 -18.9107 -17.7895 -17.8002 -20.0282 -20.0161 -18.9107 -18.9096 -20.0161 -20.0069 -18.9096 -18.9075 -18.9107 -18.9096 -17.8002 -17.8056 -18.9096 -18.9075 -17.8056 -17.8078 -20.0069 -20.0024 -18.9075 -18.9061 -20.0024 -20.0014 -18.9061 -18.906 -18.9075 -18.9061 -17.8078 -17.8088 -18.9061 -18.906 -17.8088 -17.8103 0 -0.431569 0 -0.35293 -0.431569 -0.863138 -0.35293 -0.720788 0 -0.35293 0 -0.26931 -0.35293 -0.720788 -0.26931 -0.581278 -0.863138 -1.31332 -0.720788 -1.09025 -1.31332 -1.76351 -1.09025 -1.47199 -0.720788 -1.09025 -0.581278 -0.887112 -1.09025 -1.47199 -0.887112 -1.18048 -4.43018 -4.70542 -3.85549 -4.07929 -4.70542 -4.98066 -4.07929 -4.30592 -3.85549 -4.07929 -3.2808 -3.47651 -4.07929 -4.30592 -3.47651 -3.64621 -4.98066 -5.25912 -4.30592 -4.54423 -5.25912 -5.53758 -4.54423 -4.79657 -4.30592 -4.54423 -3.64621 -3.82348 -4.54423 -4.79657 -3.82348 -4.03615 -5.53758 -5.83064 -4.79657 -5.05687 -5.83064 -6.1237 -5.05687 -5.32572 -4.79657 -5.05687 -4.03615 -4.27001 -5.05687 -5.32572 -4.27001 -4.49347 -6.1237 -6.43127 -5.32572 -5.61752 -6.43127 -6.73883 -5.61752 -5.9314 -5.32572 -5.61752 -4.49347 -4.75889 -5.61752 -5.9314 -4.75889 -5.07588 -6.73883 -7.05628 -5.9314 -6.25319 -7.05628 -7.37373 -6.25319 -6.58645 -5.9314 -6.25319 -5.07588 -5.42603 -6.25319 -6.58645 -5.42603 -5.77696 -7.37373 -7.69652 -6.58645 -6.9299 -7.69652 -8.01931 -6.9299 -7.28149 -6.58645 -6.9299 -5.77696 -6.15507 -6.9299 -7.28149 -6.15507 -6.54855 -8.01931 -8.34002 -7.28149 -7.63424 -8.34002 -8.66074 -7.63424 -7.98256 -7.28149 -7.63424 -6.54855 -6.94396 -7.63424 -7.98256 -6.94396 -7.33477 -8.66074 -8.96999 -7.98256 -8.32126 -8.96999 -9.27924 -8.32126 -8.64382 -7.98256 -8.32126 -7.33477 -7.71018 -8.32126 -8.64382 -7.71018 -8.05441 -9.27924 -9.57227 -8.64382 -8.94712 -9.57227 -9.8653 -8.94712 -9.23221 -8.64382 -8.94712 -8.05441 -8.35764 -8.94712 -9.23221 -8.35764 -8.62897 -9.8653 -10.1428 -9.23221 -9.49884 -10.1428 -10.4202 -9.49884 -9.7556 -9.23221 -9.49884 -8.62897 -8.87055 -9.49884 -9.7556 -8.87055 -9.10167 -10.4202 -10.6866 -9.7556 -10.0018 -10.6866 -10.9529 -10.0018 -10.2439 -9.7556 -10.0018 -9.10167 -9.32144 -10.0018 -10.2439 -9.32144 -9.53689 -10.9529 -11.2132 -10.2439 -10.4824 -11.2132 -11.4735 -10.4824 -10.7194 -10.2439 -10.4824 -9.53689 -9.75087 -10.4824 -10.7194 -9.75087 -9.96268 -11.4735 -11.7309 -10.7194 -10.957 -11.7309 -11.9882 -10.957 -11.1959 -10.7194 -10.957 -9.96268 -10.1791 -10.957 -11.1959 -10.1791 -10.3997 -11.9882 -12.2436 -11.1959 -11.4359 -12.2436 -12.4991 -11.4359 -11.677 -11.1959 -11.4359 -10.3997 -10.6242 -11.4359 -11.677 -10.6242 -10.8525 -12.4991 -12.7511 -11.677 -11.918 -12.7511 -13.0032 -11.918 -12.1566 -11.677 -11.918 -10.8525 -11.0839 -11.918 -12.1566 -11.0839 -11.3168 -13.0032 -13.2485 -12.1566 -12.3911 -13.2485 -13.4939 -12.3911 -12.6174 -12.1566 -12.3911 -11.3168 -11.5463 -12.3911 -12.6174 -11.5463 -11.7685 -13.4939 -13.7323 -12.6174 -12.8382 -13.7323 -13.9707 -12.8382 -13.0507 -12.6174 -12.8382 -11.7685 -11.9788 -12.8382 -13.0507 -11.9788 -12.1756 -13.9707 -14.2001 -13.0507 -13.2604 -14.2001 -14.4295 -13.2604 -13.4602 -13.0507 -13.2604 -12.1756 -12.356 -13.2604 -13.4602 -12.356 -12.5235 -14.4295 -14.6404 -13.4602 -13.6547 -14.6404 -14.8512 -13.6547 -13.8408 -13.4602 -13.6547 -12.5235 -12.682 -13.6547 -13.8408 -12.682 -12.838 -14.8512 -15.0385 -13.8408 -14.0196 -15.0385 -15.2257 -14.0196 -14.1865 -13.8408 -14.0196 -12.838 -12.9911 -14.0196 -14.1865 -12.9911 -13.1359 -15.2257 -15.3987 -14.1865 -14.3364 -15.3987 -15.5504 -14.3364 -14.4732 -14.1865 -14.3364 -13.1359 -13.2689 -14.3364 -14.4732 -13.2689 -13.3936 -15.5504 -15.6841 -14.4732 -14.6024 -15.6841 -15.8027 -14.6024 -14.7224 -14.4732 -14.6024 -13.3936 -13.5148 -14.6024 -14.7224 -13.5148 -13.6352 -15.8027 -15.9188 -14.7224 -14.832 -15.9188 -16.0165 -14.832 -14.9522 -14.7224 -14.832 -13.6352 -13.7568 -14.832 -14.9522 -13.7568 -13.886 -16.0165 -16.0888 -14.9522 -15.1063 -16.0888 -16.1658 -15.1063 -15.1877 -14.9522 -15.1063 -13.886 -14.0069 -15.1063 -15.1877 -14.0069 -14.1254 -16.1658 -16.4033 -15.1877 -15.1879 -16.4033 -16.5933 -15.1879 -15.3311 -15.1877 -15.1879 -14.1254 -14.2264 -15.1879 -15.3311 -14.2264 -14.3112 -16.5933 -16.7621 -15.3311 -15.5491 -16.7621 -16.9335 -15.5491 -15.7256 -15.3311 -15.5491 -14.3112 -14.3537 -15.5491 -15.7256 -14.3537 -14.5433 -16.9335 -17.0835 -15.7256 -15.8785 -17.0835 -17.2154 -15.8785 -16.0204 -15.7256 -15.8785 -14.5433 -14.7077 -15.8785 -16.0204 -14.7077 -14.8541 -17.2154 -17.3325 -16.0204 -16.1471 -17.3325 -17.435 -16.1471 -16.2612 -16.0204 -16.1471 -14.8541 -14.9958 -16.1471 -16.2612 -14.9958 -15.1198 -17.435 -17.5235 -16.2612 -16.3612 -17.5235 -17.5982 -16.3612 -16.4473 -16.2612 -16.3612 -15.1198 -15.2297 -16.3612 -16.4473 -15.2297 -15.326 -17.5982 -17.6595 -16.4473 -16.5198 -17.6595 -17.7081 -16.5198 -16.5789 -16.4473 -16.5198 -15.326 -15.4074 -16.5198 -16.5789 -15.4074 -15.4751 -17.7081 -17.7451 -16.5789 -16.6257 -17.7451 -17.7717 -16.6257 -16.6611 -16.5789 -16.6257 -15.4751 -15.5299 -16.6257 -16.6611 -15.5299 -15.5721 -17.7717 -17.7895 -16.6611 -16.6862 -17.7895 -17.8002 -16.6862 -16.7025 -16.6611 -16.6862 -15.5721 -15.6026 -16.6862 -16.7025 -15.6026 -15.6223 -17.8002 -17.8056 -16.7025 -16.7116 -17.8056 -17.8078 -16.7116 -16.7159 -16.7025 -16.7116 -15.6223 -15.6333 -16.7116 -16.7159 -15.6333 -15.6382 -17.8078 -17.8088 -16.7159 -16.7179 -17.8088 -17.8103 -16.7179 -16.7204 -16.7159 -16.7179 -15.6382 -15.6401 -16.7179 -16.7204 -15.6401 -15.6428 0 -0.26931 0 -0.198705 -0.26931 -0.581278 -0.198705 -0.452223 0 -0.198705 0 -0.106439 -0.198705 -0.452223 -0.106439 -0.264816 -0.581278 -0.887112 -0.452223 -0.684296 -0.887112 -1.18048 -0.684296 -0.936486 -0.452223 -0.684296 -0.264816 -0.473064 -0.684296 -0.936486 -0.473064 -0.707108 -1.18048 -1.48178 -0.936486 -1.19609 -1.48178 -1.78309 -1.19609 -1.44751 -0.936486 -1.19609 -0.707108 -0.913094 -1.19609 -1.44751 -0.913094 -1.12565 -1.78309 -2.0624 -1.44751 -1.69827 -2.0624 -2.34171 -1.69827 -1.94674 -1.44751 -1.69827 -1.12565 -1.34391 -1.69827 -1.94674 -1.34391 -1.55177 -3.2808 -3.47651 -2.7988 -2.94775 -3.47651 -3.64621 -2.94775 -3.08565 -2.7988 -2.94775 -2.31681 -2.48231 -2.94775 -3.08565 -2.48231 -2.62718 -3.64621 -3.82348 -3.08565 -3.20583 -3.82348 -4.03615 -3.20583 -3.3313 -3.08565 -3.20583 -2.62718 -2.75614 -3.20583 -3.3313 -2.75614 -2.88394 -4.03615 -4.27001 -3.3313 -3.50317 -4.27001 -4.49347 -3.50317 -3.71397 -3.3313 -3.50317 -2.88394 -3.01845 -3.50317 -3.71397 -3.01845 -3.15286 -4.49347 -4.75889 -3.71397 -3.91566 -4.75889 -5.07588 -3.91566 -4.10863 -3.71397 -3.91566 -3.15286 -3.28079 -3.91566 -4.10863 -3.28079 -3.38284 -5.07588 -5.42603 -4.10863 -4.41673 -5.42603 -5.77696 -4.41673 -4.9412 -4.10863 -4.41673 -3.38284 -3.45365 -4.41673 -4.9412 -3.45365 -3.48833 -5.77696 -6.15507 -4.9412 -5.36997 -6.15507 -6.54855 -5.36997 -5.82647 -4.9412 -5.36997 -3.48833 -4.27874 -5.36997 -5.82647 -4.27874 -5.39609 -6.54855 -6.94396 -5.82647 -6.28562 -6.94396 -7.33477 -6.28562 -6.7167 -5.82647 -6.28562 -5.39609 -5.98181 -6.28562 -6.7167 -5.98181 -6.37134 -7.33477 -7.71018 -6.7167 -7.14722 -7.71018 -8.05441 -7.14722 -7.48292 -6.7167 -7.14722 -6.37134 -6.70236 -7.14722 -7.48292 -6.70236 -6.99215 -8.05441 -8.35764 -7.48292 -7.78458 -8.35764 -8.62897 -7.78458 -8.01972 -7.48292 -7.78458 -6.99215 -7.18699 -7.78458 -8.01972 -7.18699 -7.43032 -8.62897 -8.87055 -8.01972 -8.2405 -8.87055 -9.10167 -8.2405 -8.43839 -8.01972 -8.2405 -7.43032 -7.58012 -8.2405 -8.43839 -7.58012 -7.78459 -9.10167 -9.32144 -8.43839 -8.63615 -9.32144 -9.53689 -8.63615 -8.82327 -8.43839 -8.63615 -7.78459 -7.9348 -8.63615 -8.82327 -7.9348 -8.11126 -9.53689 -9.75087 -8.82327 -9.01445 -9.75087 -9.96268 -9.01445 -9.20181 -8.82327 -9.01445 -8.11126 -8.27314 -9.01445 -9.20181 -8.27314 -8.43994 -9.96268 -10.1791 -9.20181 -9.39741 -10.1791 -10.3997 -9.39741 -9.59998 -9.20181 -9.39741 -8.43994 -8.61543 -9.39741 -9.59998 -8.61543 -8.79997 -10.3997 -10.6242 -9.59998 -9.80915 -10.6242 -10.8525 -9.80915 -10.0256 -9.59998 -9.80915 -8.79997 -8.99409 -9.80915 -10.0256 -8.99409 -9.19988 -10.8525 -11.0839 -10.0256 -10.2518 -11.0839 -11.3168 -10.2518 -10.4874 -10.0256 -10.2518 -9.19988 -9.42742 -10.2518 -10.4874 -9.42742 -9.67593 -11.3168 -11.5463 -10.4874 -10.7287 -11.5463 -11.7685 -10.7287 -10.9715 -10.4874 -10.7287 -9.67593 -9.99885 -10.7287 -10.9715 -9.99885 -10.3333 -11.7685 -11.9788 -10.9715 -11.1936 -11.9788 -12.1756 -11.1936 -11.3664 -10.9715 -11.1936 -10.3333 -10.5054 -11.1936 -11.3664 -10.5054 -10.6012 -12.1756 -12.356 -11.3664 -11.499 -12.356 -12.5235 -11.499 -11.6131 -11.3664 -11.499 -10.6012 -10.6685 -11.499 -11.6131 -10.6685 -10.7212 -12.5235 -12.682 -11.6131 -11.7189 -12.682 -12.838 -11.7189 -11.8238 -11.6131 -11.7189 -10.7212 -10.7649 -11.7189 -11.8238 -10.7649 -10.8036 -12.838 -12.9911 -11.8238 -11.9346 -12.9911 -13.1359 -11.9346 -12.0531 -11.8238 -11.9346 -10.8036 -10.8459 -11.9346 -12.0531 -10.8459 -10.9166 -13.1359 -13.2689 -12.0531 -12.175 -13.2689 -13.3936 -12.175 -12.2954 -12.0531 -12.175 -10.9166 -11.0314 -12.175 -12.2954 -11.0314 -11.1704 -13.3936 -13.5148 -12.2954 -12.4188 -13.5148 -13.6352 -12.4188 -12.5459 -12.2954 -12.4188 -11.1704 -11.3098 -12.4188 -12.5459 -11.3098 -11.4462 -13.6352 -13.7568 -12.5459 -12.6728 -13.7568 -13.886 -12.6728 -12.8017 -12.5459 -12.6728 -11.4462 -11.5815 -12.6728 -12.8017 -11.5815 -11.7161 -13.886 -14.0069 -12.8017 -12.9275 -14.0069 -14.1254 -12.9275 -13.0445 -12.8017 -12.9275 -11.7161 -11.8496 -12.9275 -13.0445 -11.8496 -11.9839 -14.1254 -14.2264 -13.0445 -13.1739 -14.2264 -14.3112 -13.1739 -13.3273 -13.0445 -13.1739 -11.9839 -12.1231 -13.1739 -13.3273 -12.1231 -12.2517 -14.3112 -14.3537 -13.3273 -13.4115 -14.3537 -14.5433 -13.4115 -13.4089 -13.3273 -13.4115 -12.2517 -12.3835 -13.4115 -13.4089 -12.3835 -12.52 -14.5433 -14.7077 -13.4089 -13.5233 -14.7077 -14.8541 -13.5233 -13.732 -13.4089 -13.5233 -12.52 -12.6209 -13.5233 -13.732 -12.6209 -12.6387 -14.8541 -14.9958 -13.732 -13.8819 -14.9958 -15.1198 -13.8819 -14.0093 -13.732 -13.8819 -12.6387 -12.8067 -13.8819 -14.0093 -12.8067 -12.9343 -15.1198 -15.2297 -14.0093 -14.1298 -15.2297 -15.326 -14.1298 -14.2336 -14.0093 -14.1298 -12.9343 -13.0604 -14.1298 -14.2336 -13.0604 -13.1671 -15.326 -15.4074 -14.2336 -14.3216 -15.4074 -15.4751 -14.3216 -14.3966 -14.2336 -14.3216 -13.1671 -13.2603 -14.3216 -14.3966 -13.2603 -13.3428 -15.4751 -15.5299 -14.3966 -14.4586 -15.5299 -15.5721 -14.4586 -14.507 -14.3966 -14.4586 -13.3428 -13.4131 -14.4586 -14.507 -13.4131 -13.4676 -15.5721 -15.6026 -14.507 -14.5418 -15.6026 -15.6223 -14.5418 -14.564 -14.507 -14.5418 -13.4676 -13.5065 -14.5418 -14.564 -13.5065 -13.5309 -15.6223 -15.6333 -14.564 -14.5757 -15.6333 -15.6382 -14.5757 -14.58 -14.564 -14.5757 -13.5309 -13.543 -14.5757 -14.58 -13.543 -13.5461 -15.6382 -15.6401 -14.58 -14.5808 -15.6401 -15.6428 -14.5808 -14.5828 -14.58 -14.5808 -13.5461 -13.5449 -14.5808 -14.5828 -13.5449 -13.5452 0 -0.106439 0 -0.104925 -0.106439 -0.264816 -0.104925 -0.0621129 0 -0.104925 0 -0.0981019 -0.104925 -0.0621129 -0.0981019 -0.220943 -0.264816 -0.473064 -0.0621129 -0.25845 -0.473064 -0.707108 -0.25845 -0.443251 -0.0621129 -0.25845 -0.220943 -0.367591 -0.25845 -0.443251 -0.367591 -0.203734 -0.707108 -0.913094 -0.443251 -0.626232 -0.913094 -1.12565 -0.626232 -0.816056 -0.443251 -0.626232 -0.203734 -0.321458 -0.626232 -0.816056 -0.321458 -0.474067 -1.12565 -1.34391 -0.816056 -0.992557 -1.34391 -1.55177 -0.992557 -1.17774 -0.816056 -0.992557 -0.474067 -0.639627 -0.992557 -1.17774 -0.639627 -0.817744 -1.55177 -1.75501 -1.17774 -1.36872 -1.75501 -1.95825 -1.36872 -1.54904 -1.17774 -1.36872 -0.817744 -0.980927 -1.36872 -1.54904 -0.980927 -1.15105 -1.95825 -2.13753 -1.54904 -1.72553 -2.13753 -2.31681 -1.72553 -1.89409 -1.54904 -1.72553 -1.15105 -1.32575 -1.72553 -1.89409 -1.32575 -1.49172 -2.31681 -2.48231 -1.89409 -2.05518 -2.48231 -2.62718 -2.05518 -2.20951 -1.89409 -2.05518 -1.49172 -1.6542 -2.05518 -2.20951 -1.6542 -1.81519 -2.62718 -2.75614 -2.20951 -2.35759 -2.75614 -2.88394 -2.35759 -2.50417 -2.20951 -2.35759 -1.81519 -1.97336 -2.35759 -2.50417 -1.97336 -2.12833 -2.88394 -3.01845 -2.50417 -2.64374 -3.01845 -3.15286 -2.64374 -2.77698 -2.50417 -2.64374 -2.12833 -2.28246 -2.64374 -2.77698 -2.28246 -2.44179 -3.15286 -3.28079 -2.77698 -2.91417 -3.28079 -3.38284 -2.91417 -3.05261 -2.77698 -2.91417 -2.44179 -2.59957 -2.91417 -3.05261 -2.59957 -2.75575 -3.38284 -3.45365 -3.05261 -3.22682 -3.45365 -3.48833 -3.22682 -3.39089 -3.05261 -3.22682 -2.75575 -2.92667 -3.22682 -3.39089 -2.92667 -3.09682 -3.48833 -4.27874 -3.39089 -3.32842 -4.27874 -5.39609 -3.32842 -3.48749 -3.39089 -3.32842 -3.09682 -3.26592 -3.32842 -3.48749 -3.26592 -3.41464 -5.39609 -5.98181 -3.48749 -4.36707 -5.98181 -6.37134 -4.36707 -5.01011 -3.48749 -4.36707 -3.41464 -3.30754 -4.36707 -5.01011 -3.30754 -3.36926 -6.37134 -6.70236 -5.01011 -5.40076 -6.70236 -6.99215 -5.40076 -5.767 -5.01011 -5.40076 -3.36926 -4.14187 -5.40076 -5.767 -4.14187 -4.64124 -6.99215 -7.18699 -5.767 -6.1353 -7.18699 -7.43032 -6.1353 -6.43674 -5.767 -6.1353 -4.64124 -5.06881 -6.1353 -6.43674 -5.06881 -5.43189 -7.43032 -7.58012 -6.43674 -6.70334 -7.58012 -7.78459 -6.70334 -6.93105 -6.43674 -6.70334 -5.43189 -5.74644 -6.70334 -6.93105 -5.74644 -6.05867 -7.78459 -7.9348 -6.93105 -7.16111 -7.9348 -8.11126 -7.16111 -7.38292 -6.93105 -7.16111 -6.05867 -6.32917 -7.16111 -7.38292 -6.32917 -6.61025 -8.11126 -8.27314 -7.38292 -7.61058 -8.27314 -8.43994 -7.61058 -7.83368 -7.38292 -7.61058 -6.61025 -6.89693 -7.61058 -7.83368 -6.89693 -7.17129 -8.43994 -8.61543 -7.83368 -8.04617 -8.61543 -8.79997 -8.04617 -8.24697 -7.83368 -8.04617 -7.17129 -7.42375 -8.04617 -8.24697 -7.42375 -7.65901 -8.79997 -8.99409 -8.24697 -8.44965 -8.99409 -9.19988 -8.44965 -8.71273 -8.24697 -8.44965 -7.65901 -7.89297 -8.44965 -8.71273 -7.89297 -8.15582 -9.19988 -9.42742 -8.71273 -9.17471 -9.42742 -9.67593 -9.17471 -9.49423 -8.71273 -9.17471 -8.15582 -8.41899 -9.17471 -9.49423 -8.41899 -8.73318 -9.67593 -9.99885 -9.49423 -9.64334 -9.99885 -10.3333 -9.64334 -9.70821 -9.49423 -9.64334 -8.73318 -8.86091 -9.64334 -9.70821 -8.86091 -8.92965 -10.3333 -10.5054 -9.70821 -9.77041 -10.5054 -10.6012 -9.77041 -9.81116 -9.70821 -9.77041 -8.92965 -8.96383 -9.77041 -9.81116 -8.96383 -8.97589 -10.6012 -10.6685 -9.81116 -9.83116 -10.6685 -10.7212 -9.83116 -9.83537 -9.81116 -9.83116 -8.97589 -8.96939 -9.83116 -9.83537 -8.96939 -8.94279 -10.7212 -10.7649 -9.83537 -9.82561 -10.7649 -10.8036 -9.82561 -9.80249 -9.83537 -9.82561 -8.94279 -8.89838 -9.82561 -9.80249 -8.89838 -8.8354 -10.8036 -10.8459 -9.80249 -9.76301 -10.8459 -10.9166 -9.76301 -9.73691 -9.80249 -9.76301 -8.8354 -8.75321 -9.76301 -9.73691 -8.75321 -8.60758 -10.9166 -11.0314 -9.73691 -9.86 -11.0314 -11.1704 -9.86 -10.0381 -9.73691 -9.86 -8.60758 -8.68734 -9.86 -10.0381 -8.68734 -8.8854 -11.1704 -11.3098 -10.0381 -10.1824 -11.3098 -11.4462 -10.1824 -10.3348 -10.0381 -10.1824 -8.8854 -9.0602 -10.1824 -10.3348 -9.0602 -9.23746 -11.4462 -11.5815 -10.3348 -10.4896 -11.5815 -11.7161 -10.4896 -10.636 -10.3348 -10.4896 -9.23746 -9.39603 -10.4896 -10.636 -9.39603 -9.55472 -11.7161 -11.8496 -10.636 -10.7798 -11.8496 -11.9839 -10.7798 -10.9219 -10.636 -10.7798 -9.55472 -9.71369 -10.7798 -10.9219 -9.71369 -9.8639 -11.9839 -12.1231 -10.9219 -11.0641 -12.1231 -12.2517 -11.0641 -11.2031 -10.9219 -11.0641 -9.8639 -10.0106 -11.0641 -11.2031 -10.0106 -10.1554 -12.2517 -12.3835 -11.2031 -11.3373 -12.3835 -12.52 -11.3373 -11.4774 -11.2031 -11.3373 -10.1554 -10.3014 -11.3373 -11.4774 -10.3014 -10.4458 -12.52 -12.6209 -11.4774 -11.6229 -12.6209 -12.6387 -11.6229 -11.7165 -11.4774 -11.6229 -10.4458 -10.5757 -11.6229 -11.7165 -10.5757 -10.7157 -12.6387 -12.8067 -11.7165 -11.7616 -12.8067 -12.9343 -11.7616 -11.8723 -11.7165 -11.7616 -10.7157 -10.8831 -11.7616 -11.8723 -10.8831 -10.9706 -12.9343 -13.060