# vtk DataFile Version 3.0
#This file was generated by the deal.II library on 2015/9/1 at 17:12:53
ASCII
DATASET UNSTRUCTURED_GRID

POINTS 3200 double
0 0 0
0.05 0 0
0 0.05 0
0.05 0.05 0
0.05 0 0
0.1 0 0
0.05 0.05 0
0.1 0.05 0
0.1 0 0
0.15 0 0
0.1 0.05 0
0.15 0.05 0
0.15 0 0
0.2 0 0
0.15 0.05 0
0.2 0.05 0
0.2 0 0
0.25 0 0
0.2 0.05 0
0.25 0.05 0
0.25 0 0
0.3 0 0
0.25 0.05 0
0.3 0.05 0
0.3 0 0
0.35 0 0
0.3 0.05 0
0.35 0.05 0
0.35 0 0
0.4 0 0
0.35 0.05 0
0.4 0.05 0
0.4 0 0
0.45 0 0
0.4 0.05 0
0.45 0.05 0
0.45 0 0
0.5 0 0
0.45 0.05 0
0.5 0.05 0
0.5 0 0
0.55 0 0
0.5 0.05 0
0.55 0.05 0
0.55 0 0
0.6 0 0
0.55 0.05 0
0.6 0.05 0
0.6 0 0
0.65 0 0
0.6 0.05 0
0.65 0.05 0
0.65 0 0
0.7 0 0
0.65 0.05 0
0.7 0.05 0
0.7 0 0
0.75 0 0
0.7 0.05 0
0.75 0.05 0
0.75 0 0
0.8 0 0
0.75 0.05 0
0.8 0.05 0
0.8 0 0
0.85 0 0
0.8 0.05 0
0.85 0.05 0
0.85 0 0
0.9 0 0
0.85 0.05 0
0.9 0.05 0
0.9 0 0
0.95 0 0
0.9 0.05 0
0.95 0.05 0
0.95 0 0
1 0 0
0.95 0.05 0
1 0.05 0
1 0 0
1.05 0 0
1 0.05 0
1.05 0.05 0
1.05 0 0
1.1 0 0
1.05 0.05 0
1.1 0.05 0
1.1 0 0
1.15 0 0
1.1 0.05 0
1.15 0.05 0
1.15 0 0
1.2 0 0
1.15 0.05 0
1.2 0.05 0
1.2 0 0
1.25 0 0
1.2 0.05 0
1.25 0.05 0
1.25 0 0
1.3 0 0
1.25 0.05 0
1.3 0.05 0
1.3 0 0
1.35 0 0
1.3 0.05 0
1.35 0.05 0
1.35 0 0
1.4 0 0
1.35 0.05 0
1.4 0.05 0
1.4 0 0
1.45 0 0
1.4 0.05 0
1.45 0.05 0
1.45 0 0
1.5 0 0
1.45 0.05 0
1.5 0.05 0
1.5 0 0
1.55 0 0
1.5 0.05 0
1.55 0.05 0
1.55 0 0
1.6 0 0
1.55 0.05 0
1.6 0.05 0
1.6 0 0
1.65 0 0
1.6 0.05 0
1.65 0.05 0
1.65 0 0
1.7 0 0
1.65 0.05 0
1.7 0.05 0
1.7 0 0
1.75 0 0
1.7 0.05 0
1.75 0.05 0
1.75 0 0
1.8 0 0
1.75 0.05 0
1.8 0.05 0
1.8 0 0
1.85 0 0
1.8 0.05 0
1.85 0.05 0
1.85 0 0
1.9 0 0
1.85 0.05 0
1.9 0.05 0
1.9 0 0
1.95 0 0
1.9 0.05 0
1.95 0.05 0
1.95 0 0
2 0 0
1.95 0.05 0
2 0.05 0
0 0.05 0
0.05 0.05 0
0 0.1 0
0.05 0.1 0
0.05 0.05 0
0.1 0.05 0
0.05 0.1 0
0.1 0.1 0
0.1 0.05 0
0.15 0.05 0
0.1 0.1 0
0.15 0.1 0
0.15 0.05 0
0.2 0.05 0
0.15 0.1 0
0.2 0.1 0
0.2 0.05 0
0.25 0.05 0
0.2 0.1 0
0.25 0.1 0
0.25 0.05 0
0.3 0.05 0
0.25 0.1 0
0.3 0.1 0
0.3 0.05 0
0.35 0.05 0
0.3 0.1 0
0.35 0.1 0
0.35 0.05 0
0.4 0.05 0
0.35 0.1 0
0.4 0.1 0
0.4 0.05 0
0.45 0.05 0
0.4 0.1 0
0.45 0.1 0
0.45 0.05 0
0.5 0.05 0
0.45 0.1 0
0.5 0.1 0
0.5 0.05 0
0.55 0.05 0
0.5 0.1 0
0.55 0.1 0
0.55 0.05 0
0.6 0.05 0
0.55 0.1 0
0.6 0.1 0
0.6 0.05 0
0.65 0.05 0
0.6 0.1 0
0.65 0.1 0
0.65 0.05 0
0.7 0.05 0
0.65 0.1 0
0.7 0.1 0
0.7 0.05 0
0.75 0.05 0
0.7 0.1 0
0.75 0.1 0
0.75 0.05 0
0.8 0.05 0
0.75 0.1 0
0.8 0.1 0
0.8 0.05 0
0.85 0.05 0
0.8 0.1 0
0.85 0.1 0
0.85 0.05 0
0.9 0.05 0
0.85 0.1 0
0.9 0.1 0
0.9 0.05 0
0.95 0.05 0
0.9 0.1 0
0.95 0.1 0
0.95 0.05 0
1 0.05 0
0.95 0.1 0
1 0.1 0
1 0.05 0
1.05 0.05 0
1 0.1 0
1.05 0.1 0
1.05 0.05 0
1.1 0.05 0
1.05 0.1 0
1.1 0.1 0
1.1 0.05 0
1.15 0.05 0
1.1 0.1 0
1.15 0.1 0
1.15 0.05 0
1.2 0.05 0
1.15 0.1 0
1.2 0.1 0
1.2 0.05 0
1.25 0.05 0
1.2 0.1 0
1.25 0.1 0
1.25 0.05 0
1.3 0.05 0
1.25 0.1 0
1.3 0.1 0
1.3 0.05 0
1.35 0.05 0
1.3 0.1 0
1.35 0.1 0
1.35 0.05 0
1.4 0.05 0
1.35 0.1 0
1.4 0.1 0
1.4 0.05 0
1.45 0.05 0
1.4 0.1 0
1.45 0.1 0
1.45 0.05 0
1.5 0.05 0
1.45 0.1 0
1.5 0.1 0
1.5 0.05 0
1.55 0.05 0
1.5 0.1 0
1.55 0.1 0
1.55 0.05 0
1.6 0.05 0
1.55 0.1 0
1.6 0.1 0
1.6 0.05 0
1.65 0.05 0
1.6 0.1 0
1.65 0.1 0
1.65 0.05 0
1.7 0.05 0
1.65 0.1 0
1.7 0.1 0
1.7 0.05 0
1.75 0.05 0
1.7 0.1 0
1.75 0.1 0
1.75 0.05 0
1.8 0.05 0
1.75 0.1 0
1.8 0.1 0
1.8 0.05 0
1.85 0.05 0
1.8 0.1 0
1.85 0.1 0
1.85 0.05 0
1.9 0.05 0
1.85 0.1 0
1.9 0.1 0
1.9 0.05 0
1.95 0.05 0
1.9 0.1 0
1.95 0.1 0
1.95 0.05 0
2 0.05 0
1.95 0.1 0
2 0.1 0
0 0.1 0
0.05 0.1 0
0 0.15 0
0.05 0.15 0
0.05 0.1 0
0.1 0.1 0
0.05 0.15 0
0.1 0.15 0
0.1 0.1 0
0.15 0.1 0
0.1 0.15 0
0.15 0.15 0
0.15 0.1 0
0.2 0.1 0
0.15 0.15 0
0.2 0.15 0
0.2 0.1 0
0.25 0.1 0
0.2 0.15 0
0.25 0.15 0
0.25 0.1 0
0.3 0.1 0
0.25 0.15 0
0.3 0.15 0
0.3 0.1 0
0.35 0.1 0
0.3 0.15 0
0.35 0.15 0
0.35 0.1 0
0.4 0.1 0
0.35 0.15 0
0.4 0.15 0
0.4 0.1 0
0.45 0.1 0
0.4 0.15 0
0.45 0.15 0
0.45 0.1 0
0.5 0.1 0
0.45 0.15 0
0.5 0.15 0
0.5 0.1 0
0.55 0.1 0
0.5 0.15 0
0.55 0.15 0
0.55 0.1 0
0.6 0.1 0
0.55 0.15 0
0.6 0.15 0
0.6 0.1 0
0.65 0.1 0
0.6 0.15 0
0.65 0.15 0
0.65 0.1 0
0.7 0.1 0
0.65 0.15 0
0.7 0.15 0
0.7 0.1 0
0.75 0.1 0
0.7 0.15 0
0.75 0.15 0
0.75 0.1 0
0.8 0.1 0
0.75 0.15 0
0.8 0.15 0
0.8 0.1 0
0.85 0.1 0
0.8 0.15 0
0.85 0.15 0
0.85 0.1 0
0.9 0.1 0
0.85 0.15 0
0.9 0.15 0
0.9 0.1 0
0.95 0.1 0
0.9 0.15 0
0.95 0.15 0
0.95 0.1 0
1 0.1 0
0.95 0.15 0
1 0.15 0
1 0.1 0
1.05 0.1 0
1 0.15 0
1.05 0.15 0
1.05 0.1 0
1.1 0.1 0
1.05 0.15 0
1.1 0.15 0
1.1 0.1 0
1.15 0.1 0
1.1 0.15 0
1.15 0.15 0
1.15 0.1 0
1.2 0.1 0
1.15 0.15 0
1.2 0.15 0
1.2 0.1 0
1.25 0.1 0
1.2 0.15 0
1.25 0.15 0
1.25 0.1 0
1.3 0.1 0
1.25 0.15 0
1.3 0.15 0
1.3 0.1 0
1.35 0.1 0
1.3 0.15 0
1.35 0.15 0
1.35 0.1 0
1.4 0.1 0
1.35 0.15 0
1.4 0.15 0
1.4 0.1 0
1.45 0.1 0
1.4 0.15 0
1.45 0.15 0
1.45 0.1 0
1.5 0.1 0
1.45 0.15 0
1.5 0.15 0
1.5 0.1 0
1.55 0.1 0
1.5 0.15 0
1.55 0.15 0
1.55 0.1 0
1.6 0.1 0
1.55 0.15 0
1.6 0.15 0
1.6 0.1 0
1.65 0.1 0
1.6 0.15 0
1.65 0.15 0
1.65 0.1 0
1.7 0.1 0
1.65 0.15 0
1.7 0.15 0
1.7 0.1 0
1.75 0.1 0
1.7 0.15 0
1.75 0.15 0
1.75 0.1 0
1.8 0.1 0
1.75 0.15 0
1.8 0.15 0
1.8 0.1 0
1.85 0.1 0
1.8 0.15 0
1.85 0.15 0
1.85 0.1 0
1.9 0.1 0
1.85 0.15 0
1.9 0.15 0
1.9 0.1 0
1.95 0.1 0
1.9 0.15 0
1.95 0.15 0
1.95 0.1 0
2 0.1 0
1.95 0.15 0
2 0.15 0
0 0.15 0
0.05 0.15 0
0 0.2 0
0.05 0.2 0
0.05 0.15 0
0.1 0.15 0
0.05 0.2 0
0.1 0.2 0
0.1 0.15 0
0.15 0.15 0
0.1 0.2 0
0.15 0.2 0
0.15 0.15 0
0.2 0.15 0
0.15 0.2 0
0.2 0.2 0
0.2 0.15 0
0.25 0.15 0
0.2 0.2 0
0.25 0.2 0
0.25 0.15 0
0.3 0.15 0
0.25 0.2 0
0.3 0.2 0
0.3 0.15 0
0.35 0.15 0
0.3 0.2 0
0.35 0.2 0
0.35 0.15 0
0.4 0.15 0
0.35 0.2 0
0.4 0.2 0
0.4 0.15 0
0.45 0.15 0
0.4 0.2 0
0.45 0.2 0
0.45 0.15 0
0.5 0.15 0
0.45 0.2 0
0.5 0.2 0
0.5 0.15 0
0.55 0.15 0
0.5 0.2 0
0.55 0.2 0
0.55 0.15 0
0.6 0.15 0
0.55 0.2 0
0.6 0.2 0
0.6 0.15 0
0.65 0.15 0
0.6 0.2 0
0.65 0.2 0
0.65 0.15 0
0.7 0.15 0
0.65 0.2 0
0.7 0.2 0
0.7 0.15 0
0.75 0.15 0
0.7 0.2 0
0.75 0.2 0
0.75 0.15 0
0.8 0.15 0
0.75 0.2 0
0.8 0.2 0
0.8 0.15 0
0.85 0.15 0
0.8 0.2 0
0.85 0.2 0
0.85 0.15 0
0.9 0.15 0
0.85 0.2 0
0.9 0.2 0
0.9 0.15 0
0.95 0.15 0
0.9 0.2 0
0.95 0.2 0
0.95 0.15 0
1 0.15 0
0.95 0.2 0
1 0.2 0
1 0.15 0
1.05 0.15 0
1 0.2 0
1.05 0.2 0
1.05 0.15 0
1.1 0.15 0
1.05 0.2 0
1.1 0.2 0
1.1 0.15 0
1.15 0.15 0
1.1 0.2 0
1.15 0.2 0
1.15 0.15 0
1.2 0.15 0
1.15 0.2 0
1.2 0.2 0
1.2 0.15 0
1.25 0.15 0
1.2 0.2 0
1.25 0.2 0
1.25 0.15 0
1.3 0.15 0
1.25 0.2 0
1.3 0.2 0
1.3 0.15 0
1.35 0.15 0
1.3 0.2 0
1.35 0.2 0
1.35 0.15 0
1.4 0.15 0
1.35 0.2 0
1.4 0.2 0
1.4 0.15 0
1.45 0.15 0
1.4 0.2 0
1.45 0.2 0
1.45 0.15 0
1.5 0.15 0
1.45 0.2 0
1.5 0.2 0
1.5 0.15 0
1.55 0.15 0
1.5 0.2 0
1.55 0.2 0
1.55 0.15 0
1.6 0.15 0
1.55 0.2 0
1.6 0.2 0
1.6 0.15 0
1.65 0.15 0
1.6 0.2 0
1.65 0.2 0
1.65 0.15 0
1.7 0.15 0
1.65 0.2 0
1.7 0.2 0
1.7 0.15 0
1.75 0.15 0
1.7 0.2 0
1.75 0.2 0
1.75 0.15 0
1.8 0.15 0
1.75 0.2 0
1.8 0.2 0
1.8 0.15 0
1.85 0.15 0
1.8 0.2 0
1.85 0.2 0
1.85 0.15 0
1.9 0.15 0
1.85 0.2 0
1.9 0.2 0
1.9 0.15 0
1.95 0.15 0
1.9 0.2 0
1.95 0.2 0
1.95 0.15 0
2 0.15 0
1.95 0.2 0
2 0.2 0
0 0.2 0
0.05 0.2 0
0 0.25 0
0.05 0.25 0
0.05 0.2 0
0.1 0.2 0
0.05 0.25 0
0.1 0.25 0
0.1 0.2 0
0.15 0.2 0
0.1 0.25 0
0.15 0.25 0
0.15 0.2 0
0.2 0.2 0
0.15 0.25 0
0.2 0.25 0
0.2 0.2 0
0.25 0.2 0
0.2 0.25 0
0.25 0.25 0
0.25 0.2 0
0.3 0.2 0
0.25 0.25 0
0.3 0.25 0
0.3 0.2 0
0.35 0.2 0
0.3 0.25 0
0.35 0.25 0
0.35 0.2 0
0.4 0.2 0
0.35 0.25 0
0.4 0.25 0
0.4 0.2 0
0.45 0.2 0
0.4 0.25 0
0.45 0.25 0
0.45 0.2 0
0.5 0.2 0
0.45 0.25 0
0.5 0.25 0
0.5 0.2 0
0.55 0.2 0
0.5 0.25 0
0.55 0.25 0
0.55 0.2 0
0.6 0.2 0
0.55 0.25 0
0.6 0.25 0
0.6 0.2 0
0.65 0.2 0
0.6 0.25 0
0.65 0.25 0
0.65 0.2 0
0.7 0.2 0
0.65 0.25 0
0.7 0.25 0
0.7 0.2 0
0.75 0.2 0
0.7 0.25 0
0.75 0.25 0
0.75 0.2 0
0.8 0.2 0
0.75 0.25 0
0.8 0.25 0
0.8 0.2 0
0.85 0.2 0
0.8 0.25 0
0.85 0.25 0
0.85 0.2 0
0.9 0.2 0
0.85 0.25 0
0.9 0.25 0
0.9 0.2 0
0.95 0.2 0
0.9 0.25 0
0.95 0.25 0
0.95 0.2 0
1 0.2 0
0.95 0.25 0
1 0.25 0
1 0.2 0
1.05 0.2 0
1 0.25 0
1.05 0.25 0
1.05 0.2 0
1.1 0.2 0
1.05 0.25 0
1.1 0.25 0
1.1 0.2 0
1.15 0.2 0
1.1 0.25 0
1.15 0.25 0
1.15 0.2 0
1.2 0.2 0
1.15 0.25 0
1.2 0.25 0
1.2 0.2 0
1.25 0.2 0
1.2 0.25 0
1.25 0.25 0
1.25 0.2 0
1.3 0.2 0
1.25 0.25 0
1.3 0.25 0
1.3 0.2 0
1.35 0.2 0
1.3 0.25 0
1.35 0.25 0
1.35 0.2 0
1.4 0.2 0
1.35 0.25 0
1.4 0.25 0
1.4 0.2 0
1.45 0.2 0
1.4 0.25 0
1.45 0.25 0
1.45 0.2 0
1.5 0.2 0
1.45 0.25 0
1.5 0.25 0
1.5 0.2 0
1.55 0.2 0
1.5 0.25 0
1.55 0.25 0
1.55 0.2 0
1.6 0.2 0
1.55 0.25 0
1.6 0.25 0
1.6 0.2 0
1.65 0.2 0
1.6 0.25 0
1.65 0.25 0
1.65 0.2 0
1.7 0.2 0
1.65 0.25 0
1.7 0.25 0
1.7 0.2 0
1.75 0.2 0
1.7 0.25 0
1.75 0.25 0
1.75 0.2 0
1.8 0.2 0
1.75 0.25 0
1.8 0.25 0
1.8 0.2 0
1.85 0.2 0
1.8 0.25 0
1.85 0.25 0
1.85 0.2 0
1.9 0.2 0
1.85 0.25 0
1.9 0.25 0
1.9 0.2 0
1.95 0.2 0
1.9 0.25 0
1.95 0.25 0
1.95 0.2 0
2 0.2 0
1.95 0.25 0
2 0.25 0
0 0.25 0
0.05 0.25 0
0 0.3 0
0.05 0.3 0
0.05 0.25 0
0.1 0.25 0
0.05 0.3 0
0.1 0.3 0
0.1 0.25 0
0.15 0.25 0
0.1 0.3 0
0.15 0.3 0
0.15 0.25 0
0.2 0.25 0
0.15 0.3 0
0.2 0.3 0
0.2 0.25 0
0.25 0.25 0
0.2 0.3 0
0.25 0.3 0
0.25 0.25 0
0.3 0.25 0
0.25 0.3 0
0.3 0.3 0
0.3 0.25 0
0.35 0.25 0
0.3 0.3 0
0.35 0.3 0
0.35 0.25 0
0.4 0.25 0
0.35 0.3 0
0.4 0.3 0
0.4 0.25 0
0.45 0.25 0
0.4 0.3 0
0.45 0.3 0
0.45 0.25 0
0.5 0.25 0
0.45 0.3 0
0.5 0.3 0
0.5 0.25 0
0.55 0.25 0
0.5 0.3 0
0.55 0.3 0
0.55 0.25 0
0.6 0.25 0
0.55 0.3 0
0.6 0.3 0
0.6 0.25 0
0.65 0.25 0
0.6 0.3 0
0.65 0.3 0
0.65 0.25 0
0.7 0.25 0
0.65 0.3 0
0.7 0.3 0
0.7 0.25 0
0.75 0.25 0
0.7 0.3 0
0.75 0.3 0
0.75 0.25 0
0.8 0.25 0
0.75 0.3 0
0.8 0.3 0
0.8 0.25 0
0.85 0.25 0
0.8 0.3 0
0.85 0.3 0
0.85 0.25 0
0.9 0.25 0
0.85 0.3 0
0.9 0.3 0
0.9 0.25 0
0.95 0.25 0
0.9 0.3 0
0.95 0.3 0
0.95 0.25 0
1 0.25 0
0.95 0.3 0
1 0.3 0
1 0.25 0
1.05 0.25 0
1 0.3 0
1.05 0.3 0
1.05 0.25 0
1.1 0.25 0
1.05 0.3 0
1.1 0.3 0
1.1 0.25 0
1.15 0.25 0
1.1 0.3 0
1.15 0.3 0
1.15 0.25 0
1.2 0.25 0
1.15 0.3 0
1.2 0.3 0
1.2 0.25 0
1.25 0.25 0
1.2 0.3 0
1.25 0.3 0
1.25 0.25 0
1.3 0.25 0
1.25 0.3 0
1.3 0.3 0
1.3 0.25 0
1.35 0.25 0
1.3 0.3 0
1.35 0.3 0
1.35 0.25 0
1.4 0.25 0
1.35 0.3 0
1.4 0.3 0
1.4 0.25 0
1.45 0.25 0
1.4 0.3 0
1.45 0.3 0
1.45 0.25 0
1.5 0.25 0
[...]
POINT_DATA 3200
SCALARS x_displacement double 1
LOOKUP_TABLE default
0 -1.69958 0 -0.994532 -1.69958 -2.92812 -0.994532 -2.02737 -2.92812 -3.9243 -2.02737 -2.8882 -3.9243 -4.75944 -2.8882 -3.62793 -4.75944 -5.49954 -3.62793 -4.28337 -5.49954 -6.21666 -4.28337 -4.87939 -6.21666 -6.95152 -4.87939 -5.47288 -6.95152 -7.70348 -5.47288 -6.11263 -7.70348 -8.46363 -6.11263 -6.7896 -8.46363 -9.22479 -6.7896 -7.4891 -9.22479 -9.98084 -7.4891 -8.19759 -9.98084 -10.7241 -8.19759 -8.90871 -10.7241 -11.4508 -8.90871 -9.62037 -11.4508 -12.1615 -9.62037 -10.331 -12.1615 -12.8588 -10.331 -11.039 -12.8588 -13.5462 -11.039 -11.7415 -13.5462 -14.2267 -11.7415 -12.4363 -14.2267 -14.9042 -12.4363 -13.1209 -14.9042 -15.5842 -13.1209 -13.7924 -15.5842 -16.274 -13.7924 -14.4468 -16.274 -16.9811 -14.4468 -15.0791 -16.9811 -17.7073 -15.0791 -15.6815 -17.7073 -18.4413 -15.6815 -16.2441 -18.4413 -19.1482 -16.2441 -16.7574 -19.1482 -19.762 -16.7574 -17.2126 -19.762 -20.1936 -17.2126 -17.5971 -20.1936 -20.4354 -17.5971 -17.9489 -20.4354 -20.6601 -17.9489 -18.366 -20.6601 -21.1203 -18.366 -18.6462 -21.1203 -21.0662 -18.6462 -18.9769 -21.0662 -21.2485 -18.9769 -19.382 -21.2485 -22.1631 -19.382 -19.1626 -22.1631 -22.563 -19.1626 -19.5238 -22.563 -22.756 -19.5238 -19.8301 -22.756 -22.8825 -19.8301 -19.9941 -22.8825 -22.933 -19.9941 -20.1648 -22.933 -22.9558 -20.1648 -20.2624 -22.9558 -22.9461 -20.2624 -20.3074 -22.9461 -22.9267 -20.3074 -20.3244 -22.9267 -22.9196 -20.3244 -20.3284 0 -0.994532 0 -0.856811 -0.994532 -2.02737 -0.856811 -1.48554 -2.02737 -2.8882 -1.48554 -2.09877 -2.8882 -3.62793 -2.09877 -2.69659 -3.62793 -4.28337 -2.69659 -3.21231 -4.28337 -4.87939 -3.21231 -3.624 -4.87939 -5.47288 -3.624 -3.96461 -5.47288 -6.11263 -3.96461 -4.43057 -6.11263 -6.7896 -4.43057 -5.06978 -6.7896 -7.4891 -5.06978 -5.74009 -7.4891 -8.19759 -5.74009 -6.41475 -8.19759 -8.90871 -6.41475 -7.10075 -8.90871 -9.62037 -7.10075 -7.79934 -9.62037 -10.331 -7.79934 -8.51494 -10.331 -11.039 -8.51494 -9.23738 -11.039 -11.7415 -9.23738 -9.95813 -11.7415 -12.4363 -9.95813 -10.67 -12.4363 -13.1209 -10.67 -11.3659 -13.1209 -13.7924 -11.3659 -12.0359 -13.7924 -14.4468 -12.0359 -12.6668 -14.4468 -15.0791 -12.6668 -13.2457 -15.0791 -15.6815 -13.2457 -13.7572 -15.6815 -16.2441 -13.7572 -14.1835 -16.2441 -16.7574 -14.1835 -14.5288 -16.7574 -17.2126 -14.5288 -14.8344 -17.2126 -17.5971 -14.8344 -15.1417 -17.5971 -17.9489 -15.1417 -15.4637 -17.9489 -18.366 -15.4637 -15.7748 -18.366 -18.6462 -15.7748 -16.0843 -18.6462 -18.9769 -16.0843 -16.4693 -18.9769 -19.382 -16.4693 -16.7303 -19.382 -19.1626 -16.7303 -16.9587 -19.1626 -19.5238 -16.9587 -16.9774 -19.5238 -19.8301 -16.9774 -16.8317 -19.8301 -19.9941 -16.8317 -17.3086 -19.9941 -20.1648 -17.3086 -17.5396 -20.1648 -20.2624 -17.5396 -17.659 -20.2624 -20.3074 -17.659 -17.7415 -20.3074 -20.3244 -17.7415 -17.766 -20.3244 -20.3284 -17.766 -17.7732 0 -0.856811 0 -0.624601 -0.856811 -1.48554 -0.624601 -0.897929 -1.48554 -2.09877 -0.897929 -1.48963 -2.09877 -2.69659 -1.48963 -1.9218 -2.69659 -3.21231 -1.9218 -2.31581 -3.21231 -3.624 -2.31581 -2.67826 -3.624 -3.96461 -2.67826 -3.00655 -3.96461 -4.43057 -3.00655 -3.40026 -4.43057 -5.06978 -3.40026 -3.71419 -5.06978 -5.74009 -3.71419 -4.12595 -5.74009 -6.41475 -4.12595 -4.69712 -6.41475 -7.10075 -4.69712 -5.28613 -7.10075 -7.79934 -5.28613 -6.0037 -7.79934 -8.51494 -6.0037 -6.73707 -8.51494 -9.23738 -6.73707 -7.48916 -9.23738 -9.95813 -7.48916 -8.24804 -9.95813 -10.67 -8.24804 -9.00386 -10.67 -11.3659 -9.00386 -9.75178 -11.3659 -12.0359 -9.75178 -10.4861 -12.0359 -12.6668 -10.4861 -11.1729 -12.6668 -13.2457 -11.1729 -11.7371 -13.2457 -13.7572 -11.7371 -12.1174 -13.7572 -14.1835 -12.1174 -12.3204 -14.1835 -14.5288 -12.3204 -12.4152 -14.5288 -14.8344 -12.4152 -12.4654 -14.8344 -15.1417 -12.4654 -12.5525 -15.1417 -15.4637 -12.5525 -12.8242 -15.4637 -15.7748 -12.8242 -13.1654 -15.7748 -16.0843 -13.1654 -13.497 -16.0843 -16.4693 -13.497 -13.8267 -16.4693 -16.7303 -13.8267 -14.1573 -16.7303 -16.9587 -14.1573 -14.4212 -16.9587 -16.9774 -14.4212 -14.7047 -16.9774 -16.8317 -14.7047 -15.0295 -16.8317 -17.3086 -15.0295 -14.8521 -17.3086 -17.5396 -14.8521 -15.0115 -17.5396 -17.659 -15.0115 -15.1963 -17.659 -17.7415 -15.1963 -15.2652 -17.7415 -17.766 -15.2652 -15.309 -17.766 -17.7732 -15.309 -15.3081 0 -0.624601 0 -0.0123296 -0.624601 -0.897929 -0.0123296 -0.510049 -0.897929 -1.48963 -0.510049 -0.870888 -1.48963 -1.9218 -0.870888 -1.1194 -1.9218 -2.31581 -1.1194 -1.57628 -2.31581 -2.67826 -1.57628 -1.94164 -2.67826 -3.00655 -1.94164 -2.30975 -3.00655 -3.40026 -2.30975 -2.68207 -3.40026 -3.71419 -2.68207 -3.05868 -3.71419 -4.12595 -3.05868 -3.53582 -4.12595 -4.69712 -3.53582 -3.86817 -4.69712 -5.28613 -3.86817 -4.30788 -5.28613 -6.0037 -4.30788 -5.00457 -6.0037 -6.73707 -5.00457 -5.28275 -6.73707 -7.48916 -5.28275 -6.44241 -7.48916 -8.24804 -6.44241 -7.50021 -8.24804 -9.00386 -7.50021 -8.30824 -9.00386 -9.75178 -8.30824 -9.00413 -9.75178 -10.4861 -9.00413 -9.60961 -10.4861 -11.1729 -9.60961 -10.0557 -11.1729 -11.7371 -10.0557 -10.3148 -11.7371 -12.1174 -10.3148 -10.4151 -12.1174 -12.3204 -10.4151 -10.4172 -12.3204 -12.4152 -10.4172 -10.3581 -12.4152 -12.4654 -10.3581 -10.2565 -12.4654 -12.5525 -10.2565 -10.1219 -12.5525 -12.8242 -10.1219 -10.1497 -12.8242 -13.1654 -10.1497 -10.4773 -13.1654 -13.497 -10.4773 -10.9045 -13.497 -13.8267 -10.9045 -11.2492 -13.8267 -14.1573 -11.2492 -11.5782 -14.1573 -14.4212 -11.5782 -11.9153 -14.4212 -14.7047 -11.9153 -12.3084 -14.7047 -15.0295 -12.3084 -12.5596 -15.0295 -14.8521 -12.5596 -12.7949 -14.8521 -15.0115 -12.7949 -12.877 -15.0115 -15.1963 -12.877 -12.6059 -15.1963 -15.2652 -12.6059 -12.9699 -15.2652 -15.309 -12.9699 -13.0142 -15.309 -15.3081 -13.0142 -12.9352 0 -0.0123296 0 -0.600681 -0.0123296 -0.510049 -0.600681 -0.558328 -0.510049 -0.870888 -0.558328 -0.0659887 -0.870888 -1.1194 -0.0659887 -0.489484 -1.1194 -1.57628 -0.489484 -0.87594 -1.57628 -1.94164 -0.87594 -1.1858 -1.94164 -2.30975 -1.1858 -1.60292 -2.30975 -2.68207 -1.60292 -1.97495 -2.68207 -3.05868 -1.97495 -2.36912 -3.05868 -3.53582 -2.36912 -2.76214 -3.53582 -3.86817 -2.76214 -3.16008 -3.86817 -4.30788 -3.16008 -3.6898 -4.30788 -5.00457 -3.6898 -4.09301 -5.00457 -5.28275 -4.09301 -4.5635 -5.28275 -6.44241 -4.5635 -5.32138 -6.44241 -7.50021 -5.32138 -6.04152 -7.50021 -8.30824 -6.04152 -7.0714 -8.30824 -9.00413 -7.0714 -7.93468 -9.00413 -9.60961 -7.93468 -8.36112 -9.60961 -10.0557 -8.36112 -8.54119 -10.0557 -10.3148 -8.54119 -8.5814 -10.3148 -10.4151 -8.5814 -8.55067 -10.4151 -10.4172 -8.55067 -8.4712 -10.4172 -10.3581 -8.4712 -8.34948 -10.3581 -10.2565 -8.34948 -8.16531 -10.2565 -10.1219 -8.16531 -7.89439 -10.1219 -10.1497 -7.89439 -7.54331 -10.1497 -10.4773 -7.54331 -7.85537 -10.4773 -10.9045 -7.85537 -8.31431 -10.9045 -11.2492 -8.31431 -8.63178 -11.2492 -11.5782 -8.63178 -9.09369 -11.5782 -11.9153 -9.09369 -9.4823 -11.9153 -12.3084 -9.4823 -9.8313 -12.3084 -12.5596 -9.8313 -10.1664 -12.5596 -12.7949 -10.1664 -10.466 -12.7949 -12.877 -10.466 -10.7905 -12.877 -12.6059 -10.7905 -11.1296 -12.6059 -12.9699 -11.1296 -10.7178 -12.9699 -13.0142 -10.7178 -10.8605 -13.0142 -12.9352 -10.8605 -10.9774 0 -0.600681 0 -0.0762999 -0.600681 -0.558328 -0.0762999 -0.163268 -0.558328 -0.0659887 -0.163268 -0.321164 -0.0659887 -0.489484 -0.321164 -0.32807 -0.489484 -0.87594 -0.32807 -0.163574 -0.87594 -1.1858 -0.163574 -0.546426 -1.1858 -1.60292 -0.546426 -0.869309 -1.60292 -1.97495 -0.869309 -1.23394 -1.97495 -2.36912 -1.23394 -1.65228 -2.36912 -2.76214 -1.65228 -2.02719 -2.76214 -3.16008 -2.02719 -2.42737 -3.16008 -3.6898 -2.42737 -2.82553 -3.6898 -4.09301 -2.82553 -3.22581 -4.09301 -4.5635 -3.22581 -3.7448 -4.5635 -5.32138 -3.7448 -4.23159 -5.32138 -6.04152 -4.23159 -4.73103 -6.04152 -7.0714 -4.73103 -5.38338 -7.0714 -7.93468 -5.38338 -6.22036 -7.93468 -8.36112 -6.22036 -6.76704 -8.36112 -8.54119 -6.76704 -6.77683 -8.54119 -8.5814 -6.77683 -6.72686 -8.5814 -8.55067 -6.72686 -6.65147 -8.55067 -8.4712 -6.65147 -6.54653 -8.4712 -8.34948 -6.54653 -6.39098 -8.34948 -8.16531 -6.39098 -6.15444 -8.16531 -7.89439 -6.15444 -5.77479 -7.89439 -7.54331 -5.77479 -5.41376 -7.54331 -7.85537 -5.41376 -5.33783 -7.85537 -8.31431 -5.33783 -5.63806 -8.31431 -8.63178 -5.63806 -6.1685 -8.63178 -9.09369 -6.1685 -6.66982 -9.09369 -9.4823 -6.66982 -7.07731 -9.4823 -9.8313 -7.07731 -7.43017 -9.8313 -10.1664 -7.43017 -7.77728 -10.1664 -10.466 -7.77728 -8.14581 -10.466 -10.7905 -8.14581 -8.57216 -10.7905 -11.1296 -8.57216 -8.81814 -11.1296 -10.7178 -8.81814 -9.17988 -10.7178 -10.8605 -9.17988 -9.73605 -10.8605 -10.9774 -9.73605 -9.27289 0 -0.0762999 0 -0.0575844 -0.0762999 -0.163268 -0.0575844 -0.125969 -0.163268 -0.321164 -0.125969 -0.154938 -0.321164 -0.32807 -0.154938 -0.206111 -0.32807 -0.163574 -0.206111 -0.333971 -0.163574 -0.546426 -0.333971 -0.0189401 -0.546426 -0.869309 -0.0189401 -0.169211 -0.869309 -1.23394 -0.169211 -0.588397 -1.23394 -1.65228 -0.588397 -0.894477 -1.65228 -2.02719 -0.894477 -1.25381 -2.02719 -2.42737 -1.25381 -1.64478 -2.42737 -2.82553 -1.64478 -1.99189 -2.82553 -3.22581 -1.99189 -2.36208 -3.22581 -3.7448 -2.36208 -2.74285 -3.7448 -4.23159 -2.74285 -3.1279 -4.23159 -4.73103 -3.1279 -3.5774 -4.73103 -5.38338 -3.5774 -4.04779 -5.38338 -6.22036 -4.04779 -4.56214 -6.22036 -6.76704 -4.56214 -4.98395 -6.76704 -6.77683 -4.98395 -4.95042 -6.77683 -6.72686 -4.95042 -4.87751 -6.72686 -6.65147 -4.87751 -4.79194 -6.65147 -6.54653 -4.79194 -4.67686 -6.54653 -6.39098 -4.67686 -4.51128 -6.39098 -6.15444 -4.51128 -4.25004 -6.15444 -5.77479 -4.25004 -3.89887 -5.77479 -5.41376 -3.89887 -3.55317 -5.41376 -5.33783 -3.55317 -3.32728 -5.33783 -5.63806 -3.32728 -3.30775 -5.63806 -6.1685 -3.30775 -3.67446 -6.1685 -6.66982 -3.67446 -4.32398 -6.66982 -7.07731 -4.32398 -4.65014 -7.07731 -7.43017 -4.65014 -4.95568 -7.43017 -7.77728 -4.95568 -5.49863 -7.77728 -8.14581 -5.49863 -5.90483 -8.14581 -8.57216 -5.90483 -6.24735 -8.57216 -8.81814 -6.24735 -6.59085 -8.81814 -9.17988 -6.59085 -7.05254 -9.17988 -9.73605 -7.05254 -7.3893 -9.73605 -9.27289 -7.3893 -7.77527 0 -0.0575844 0 -0.0421067 -0.0575844 -0.125969 -0.0421067 -0.0646282 -0.125969 -0.154938 -0.0646282 -0.0809353 -0.154938 -0.206111 -0.0809353 -0.0852576 -0.206111 -0.333971 -0.0852576 -0.0765684 -0.333971 -0.0189401 -0.0765684 -0.0922231 -0.0189401 -0.169211 -0.0922231 -0.429045 -0.169211 -0.588397 -0.429045 0.0170077 -0.588397 -0.894477 0.0170077 -0.168217 -0.894477 -1.25381 -0.168217 -0.551728 -1.25381 -1.64478 -0.551728 -0.829549 -1.64478 -1.99189 -0.829549 -1.13591 -1.99189 -2.36208 -1.13591 -1.45553 -2.36208 -2.74285 -1.45553 -1.74217 -2.74285 -3.1279 -1.74217 -2.04898 -3.1279 -3.5774 -2.04898 -2.36935 -3.5774 -4.04779 -2.36935 -2.68409 -4.04779 -4.56214 -2.68409 -2.99783 -4.56214 -4.98395 -2.99783 -3.17438 -4.98395 -4.95042 -3.17438 -3.14663 -4.95042 -4.87751 -3.14663 -3.07628 -4.87751 -4.79194 -3.07628 -2.99871 -4.79194 -4.67686 -2.99871 -2.90224 -4.67686 -4.51128 -2.90224 -2.77129 -4.51128 -4.25004 -2.77129 -2.59837 -4.25004 -3.89887 -2.59837 -2.3478 -3.89887 -3.55317 -2.3478 -2.02972 -3.55317 -3.32728 -2.02972 -1.70751 -3.32728 -3.30775 -1.70751 -1.45339 -3.30775 -3.67446 -1.45339 -1.19368 -3.67446 -4.32398 -1.19368 -2.07742 -4.32398 -4.65014 -2.07742 -2.10811 -4.65014 -4.95568 -2.10811 -2.7346 -4.95568 -5.49863 -2.7346 -3.35815 -5.49863 -5.90483 -3.35815 -3.69204 -5.90483 -6.24735 -3.69204 -4.01312 -6.24735 -6.59085 -4.01312 -4.33883 -6.59085 -7.05254 -4.33883 -4.68746 -7.05254 -7.3893 -4.68746 -5.03788 -7.3893 -7.77527 -5.03788 -5.2554 0 -0.0421067 0 -0.0186291 -0.0421067 -0.0646282 -0.0186291 -0.0281027 -0.0646282 -0.0809353 -0.0281027 -0.0294715 -0.0809353 -0.0852576 -0.0294715 -0.0285533 -0.0852576 -0.0765684 -0.0285533 -0.0412486 -0.0765684 -0.0922231 -0.0412486 -0.0359766 -0.0922231 -0.429045 -0.0359766 0.100268 -0.429045 0.0170077 0.100268 0.328076 0.0170077 -0.168217 0.328076 -0.192744 -0.168217 -0.551728 -0.192744 0.138756 -0.551728 -0.829549 0.138756 -0.0865003 -0.829549 -1.13591 -0.0865003 -0.37354 -1.13591 -1.45553 -0.37354 -0.56547 -1.45553 -1.74217 -0.56547 -0.761145 -1.74217 -2.04898 -0.761145 -0.972903 -2.04898 -2.36935 -0.972903 -1.1633 -2.36935 -2.68409 -1.1633 -1.32563 -2.68409 -2.99783 -1.32563 -1.43953 -2.99783 -3.17438 -1.43953 -1.47772 -3.17438 -3.14663 -1.47772 -1.44872 -3.14663 -3.07628 -1.44872 -1.39739 -3.07628 -2.99871 -1.39739 -1.3474 -2.99871 -2.90224 -1.3474 -1.30855 -2.90224 -2.77129 -1.30855 -1.29423 -2.77129 -2.59837 -1.29423 -1.24914 -2.59837 -2.3478 -1.24914 -1.09883 -2.3478 -2.02972 -1.09883 -0.847218 -2.02972 -1.70751 -0.847218 -0.541396 -1.70751 -1.45339 -0.541396 -0.231524 -1.45339 -1.19368 -0.231524 0.0250577 -1.19368 -2.07742 0.0250577 0.975839 -2.07742 -2.10811 0.975839 -0.773307 -2.10811 -2.7346 -0.773307 -1.46115 -2.7346 -3.35815 -1.46115 -1.31011 -3.35815 -3.69204 -1.31011 -1.53096 -3.69204 -4.01312 -1.53096 -1.76789 -4.01312 -4.33883 -1.76789 -2.09605 -4.33883 -4.68746 -2.09605 -2.35084 -4.68746 -5.03788 -2.35084 -2.61219 -5.03788 -5.2554 -2.61219 -2.64175 0 -0.0186291 0 2.43954e-11 -0.0186291 -0.0281027 2.43954e-11 -3.2683e-11 -0.0281027 -0.0294715 -3.2683e-11 7.80651e-11 -0.0294715 -0.0285533 7.80651e-11 -6.94892e-11 -0.0285533 -0.0412486 -6.94892e-11 -1.04358e-10 -0.0412486 -0.0359766 -1.04358e-10 -3.31331e-11 -0.0359766 0.100268 -3.31331e-11 -4.48366e-11 0.100268 0.328076 -4.48366e-11 1.52178e-10 0.328076 -0.192744 1.52178e-10 -8.70536e-11 -0.192744 0.138756 -8.70536e-11 -2.32614e-11 0.138756 -0.0865003 -2.32614e-11 -8.07346e-12 -0.0865003 -0.37354 -8.07346e-12 -6.73578e-12 -0.37354 -0.56547 -6.73578e-12 -3.73546e-12 -0.56547 -0.761145 -3.73546e-12 -2.48845e-12 -0.761145 -0.972903 -2.48845e-12 -1.80621e-12 -0.972903 -1.1633 -1.80621e-12 -9.74816e-13 -1.1633 -1.32563 -9.74816e-13 -4.63787e-13 -1.32563 -1.43953 -4.63787e-13 -3.67641e-13 -1.43953 -1.47772 -3.67641e-13 -1.46442e-13 -1.47772 -1.44872 -1.46442e-13 -7.08834e-13 -1.44872 -1.39739 -7.08834e-13 -1.13171e-12 -1.39739 -1.3474 -1.13171e-12 -5.35115e-13 -1.3474 -1.30855 -5.35115e-13 -2.8894e-12 -1.30855 -1.29423 -2.8894e-12 -2.93754e-12 -1.29423 -1.24914 -2.93754e-12 5.49877e-12 -1.24914 -1.09883 5.49877e-12 8.49354e-12 -1.09883 -0.847218 8.49354e-12 3.03659e-11 -0.847218 -0.541396 3.03659e-11 6.56718e-11 -0.541396 -0.231524 6.56718e-11 4.17664e-11 -0.231524 0.0250577 4.17664e-11 9.04316e-11 0.0250577 0.975839 9.04316e-11 7.0135e-10 0.975839 -0.773307 7.0135e-10 5.06473e-10 -0.773307 -1.46115 5.06473e-10 2.46067e-09 -1.46115 -1.31011 2.46067e-09 5.53678e-11 -1.31011 -1.53096 5.53678e-11 1.86411e-11 -1.53096 -1.76789 1.86411e-11 8.78502e-12 -1.76789 -2.09605 8.78502e-12 7.01163e-12 -2.09605 -2.35084 7.01163e-12 6.57969e-12 -2.35084 -2.61219 6.57969e-12 5.72928e-12 -2.61219 -2.64175 5.72928e-12 5.00806e-12 0 2.43954e-11 0 0.0186291 2.43954e-11 -3.2683e-11 0.0186291 0.0281027 -3.2683e-11 7.80651e-11 0.0281027 0.0294715 7.80651e-11 -6.94892e-11 0.0294715 0.0285533 -6.94892e-11 -1.04358e-10 0.0285533 0.0412486 -1.04358e-10 -3.31331e-11 0.0412486 0.0359766 -3.31331e-11 -4.48366e-11 0.0359766 -0.100268 -4.48366e-11 1.52178e-10 -0.100268 -0.328076 1.52178e-10 -8.70536e-11 -0.328076 0.192744 -8.70536e-11 -2.32614e-11 0.192744 -0.138756 -2.32614e-11 -8.07346e-12 -0.138756 0.0865003 -8.07346e-12 -6.73578e-12 0.0865003 0.37354 -6.73578e-12 -3.73546e-12 0.37354 0.56547 -3.73546e-12 -2.48845e-12 0.56547 0.761145 -2.48845e-12 -1.80621e-12 0.761145 0.972903 -1.80621e-12 -9.74816e-13 0.972903 1.1633 -9.74816e-13 -4.63787e-13 1.1633 1.32563 -4.63787e-13 -3.67641e-13 1.32563 1.43953 -3.67641e-13 -1.46442e-13 1.43953 1.47772 -1.46442e-13 -7.08834e-13 1.47772 1.44872 -7.08834e-13 -1.13171e-12 1.44872 1.39739 -1.13171e-12 -5.35115e-13 1.39739 1.3474 -5.35115e-13 -2.8894e-12 1.3474 1.30855 -2.8894e-12 -2.93754e-12 1.30855 1.29423 -2.93754e-12 5.49877e-12 1.29423 1.24914 5.49877e-12 8.49354e-12 1.24914 1.09883 8.49354e-12 3.03659e-11 1.09883 0.847218 3.03659e-11 6.56718e-11 0.847218 0.541396 6.56718e-11 4.17664e-11 0.541396 0.231524 4.17664e-11 9.04316e-11 0.231524 -0.0250577 9.04316e-11 7.0135e-10 -0.0250577 -0.975839 7.0135e-10 5.06473e-10 -0.975839 0.773307 5.06473e-10 2.46067e-09 0.773307 1.46115 2.46067e-09 5.53678e-11 1.46115 1.31011 5.53678e-11 1.86411e-11 1.31011 1.53096 1.86411e-11 8.78502e-12 1.53096 1.76789 8.78502e-12 7.01163e-12 1.76789 2.09605 7.01163e-12 6.57969e-12 2.09605 2.35084 6.57969e-12 5.72928e-12 2.35084 2.61219 5.72928e-12 5.00806e-12 2.61219 2.64175 0 0.0186291 0 0.0421067 0.0186291 0.0281027 0.0421067 0.0646282 0.0281027 0.0294715 0.0646282 0.0809353 0.0294715 0.0285533 0.0809353 0.0852576 0.0285533 0.0412486 0.0852576 0.0765684 0.0412486 0.0359766 0.0765684 0.0922231 0.0359766 -0.100268 0.0922231 0.429045 -0.100268 -0.328076 0.429045 -0.0170077 -0.328076 0.192744 -0.0170077 0.168217 0.192744 -0.138756 0.168217 0.551728 -0.138756 0.0865003 0.551728 0.829549 0.0865003 0.37354 0.829549 1.13591 0.37354 0.56547 1.13591 1.45553 0.56547 0.761145 1.45553 1.74217 0.761145 0.972903 1.74217 2.04898 0.972903 1.1633 2.04898 2.36935 1.1633 1.32563 2.36935 2.68409 1.32563 1.43953 2.68409 2.99783 1.43953 1.47772 2.99783 3.17438 1.47772 1.44872 3.17438 3.14663 1.44872 1.39739 3.14663 3.07628 1.39739 1.3474 3.07628 2.99871 1.3474 1.30855 2.99871 2.90224 1.30855 1.29423 2.90224 2.77129 1.29423 1.24914 2.77129 2.59837 1.24914 1.09883 2.59837 2.3478 1.09883 0.847218 2.3478 2.02972 0.847218 0.541396 2.02972 1.70751 0.541396 0.231524 1.70751 1.45339 0.231524 -0.0250577 1.45339 1.19368 -0.0250577 -0.975839 1.19368 2.07742 -0.975839 0.773307 2.07742 2.10811 0.773307 1.46115 2.10811 2.7346 1.46115 1.31011 2.7346 3.35815 1.31011 1.53096 3.35815 3.69204 1.53096 1.76789 3.69204 4.01312 1.76789 2.09605 4.01312 4.33883 2.09605 2.35084 4.33883 4.68746 2.35084 2.61219 4.68746 5.03788 2.61219 2.64175 5.03788 5.2554 0 0.0421067 0 0.0575844 0.0421067 0.0646282 0.0575844 0.125969 0.0646282 0.0809353 0.125969 0.154938 0.0809353 0.0852576 0.154938 0.206111 0.0852576 0.0765684 0.206111 0.333971 0.0765684 0.0922231 0.333971 0.0189401 0.0922231 0.429045 0.0189401 0.169211 0.429045 -0.0170077 0.169211 0.588397 -0.0170077 0.168217 0.588397 0.894477 0.168217 0.551728 0.894477 1.25381 0.551728 0.829549 1.25381 1.64478 0.829549 1.13591 1.64478 1.99189 1.13591 1.45553 1.99189 2.36208 1.45553 1.74217 2.36208 2.74285 1.74217 2.04898 2.74285 3.1279 2.04898 2.36935 3.1279 3.5774 2.36935 2.68409 3.5774 4.04779 2.68409 2.99783 4.04779 4.56214 2.99783 3.17438 4.56214 4.98395 3.17438 3.14663 4.98395 4.95042 3.14663 3.07628 4.95042 4.87751 3.07628 2.99871 4.87751 4.79194 2.99871 2.90224 4.79194 4.67686 2.90224 2.77129 4.67686 4.51128 2.77129 2.59837 4.51128 4.25004 2.59837 2.3478 4.25004 3.89887 2.3478 2.02972 3.89887 3.55317 2.02972 1.70751 3.55317 3.32728 1.70751 1.45339 3.32728 3.30775 1.45339 1.19368 3.30775 3.67446 1.19368 2.07742 3.67446 4.32398 2.07742 2.10811 4.32398 4.65014 2.10811 2.7346 4.65014 4.95568 2.7346 3.35815 4.95568 5.49863 3.35815 3.69204 5.49863 5.90483 3.69204 4.01312 5.90483 6.24735 4.01312 4.33883 6.24735 6.59085 4.33883 4.68746 6.59085 7.05254 4.68746 5.03788 7.05254 7.3893 5.03788 5.2554 7.3893 7.77527 0 0.0575844 0 0.0762999 0.0575844 0.125969 0.0762999 0.163268 0.125969 0.154938 0.163268 0.321164 0.154938 0.206111 0.321164 0.32807 0.206111 0.333971 0.32807 0.163574 0.333971 0.0189401 0.163574 0.546426 0.0189401 0.169211 0.546426 0.869309 0.169211 0.588397 0.869309 1.23394 0.588397 0.894477 1.23394 1.65228 0.894477 1.25381 1.65228 2.02719 1.25381 1.64478 2.02719 2.42737 1.64478 1.99189 2.42737 2.82553 1.99189 2.36208 2.82553 3.22581 2.36208 2.74285 3.22581 3.7448 2.74285 3.1279 3.7448 4.23159 3.1279 3.5774 4.23159 4.73103 3.5774 4.04779 4.73103 5.38338 4.04779 4.56214 5.38338 6.22036 4.56214 4.98395 6.22036 6.76704 4.98395 4.95042 6.76704 6.77683 4.95042 4.87751 6.77683 6.72686 4.87751 4.79194 6.72686 6.65147 4.79194 4.67686 6.65147 6.54653 4.67686 4.51128 6.54653 6.39098 4.51128 4.25004 6.39098 6.15444 4.25004 3.89887 6.15444 5.77479 3.89887 3.55317 5.77479 5.41376 3.55317 3.32728 5.41376 5.33783 3.32728 