# vtk DataFile Version 3.0
#This file was generated by the deal.II library on 2015/9/1 at 17:13: 2
ASCII
DATASET UNSTRUCTURED_GRID

POINTS 11912 double
0 0 0
0.05 0 0
0 0.05 0
0.05 0.05 0
0.05 0 0
0.1 0 0
0.05 0.05 0
0.1 0.05 0
0.1 0 0
0.15 0 0
0.1 0.05 0
0.15 0.05 0
0.15 0 0
0.2 0 0
0.15 0.05 0
0.2 0.05 0
0.2 0 0
0.25 0 0
0.2 0.05 0
0.25 0.05 0
0.25 0 0
0.3 0 0
0.25 0.05 0
0.3 0.05 0
0.3 0 0
0.35 0 0
0.3 0.05 0
0.35 0.05 0
0.35 0 0
0.4 0 0
0.35 0.05 0
0.4 0.05 0
0.4 0 0
0.45 0 0
0.4 0.05 0
0.45 0.05 0
0.45 0 0
0.5 0 0
0.45 0.05 0
0.5 0.05 0
0.5 0 0
0.55 0 0
0.5 0.05 0
0.55 0.05 0
0.55 0 0
0.6 0 0
0.55 0.05 0
0.6 0.05 0
0.6 0 0
0.65 0 0
0.6 0.05 0
0.65 0.05 0
0.65 0 0
0.7 0 0
0.65 0.05 0
0.7 0.05 0
0.7 0 0
0.75 0 0
0.7 0.05 0
0.75 0.05 0
0.75 0 0
0.8 0 0
0.75 0.05 0
0.8 0.05 0
0.8 0 0
0.85 0 0
0.8 0.05 0
0.85 0.05 0
0.85 0 0
0.9 0 0
0.85 0.05 0
0.9 0.05 0
0.9 0 0
0.95 0 0
0.9 0.05 0
0.95 0.05 0
0.95 0 0
1 0 0
0.95 0.05 0
1 0.05 0
1 0 0
1.05 0 0
1 0.05 0
1.05 0.05 0
1.05 0 0
1.1 0 0
1.05 0.05 0
1.1 0.05 0
1.1 0 0
1.15 0 0
1.1 0.05 0
1.15 0.05 0
1.15 0 0
1.2 0 0
1.15 0.05 0
1.2 0.05 0
1.2 0 0
1.25 0 0
1.2 0.05 0
1.25 0.05 0
1.25 0 0
1.3 0 0
1.25 0.05 0
1.3 0.05 0
0.1 0.05 0
0.15 0.05 0
0.1 0.1 0
0.15 0.1 0
0.15 0.05 0
0.2 0.05 0
0.15 0.1 0
0.2 0.1 0
0.2 0.05 0
0.25 0.05 0
0.2 0.1 0
0.25 0.1 0
0.25 0.05 0
0.3 0.05 0
0.25 0.1 0
0.3 0.1 0
0.2 0.1 0
0.25 0.1 0
0.2 0.15 0
0.25 0.15 0
0.25 0.1 0
0.3 0.1 0
0.25 0.15 0
0.3 0.15 0
0.85 0.45 0
0.9 0.45 0
0.85 0.5 0
0.9 0.5 0
0.9 0.45 0
0.95 0.45 0
0.9 0.5 0
0.95 0.5 0
1.45 0.45 0
1.5 0.45 0
1.45 0.5 0
1.5 0.5 0
1.9 0.45 0
1.95 0.45 0
1.9 0.5 0
1.95 0.5 0
1.95 0.45 0
2 0.45 0
1.95 0.5 0
2 0.5 0
0.65 0.5 0
0.7 0.5 0
0.65 0.55 0
0.7 0.55 0
0.85 0.5 0
0.9 0.5 0
0.85 0.55 0
0.9 0.55 0
0.9 0.5 0
0.95 0.5 0
0.9 0.55 0
0.95 0.55 0
1.9 0.5 0
1.95 0.5 0
1.9 0.55 0
1.95 0.55 0
1.95 0.5 0
2 0.5 0
1.95 0.55 0
2 0.55 0
0.2 0.85 0
0.25 0.85 0
0.2 0.9 0
0.25 0.9 0
0.25 0.85 0
0.3 0.85 0
0.25 0.9 0
0.3 0.9 0
0.1 0.9 0
0.15 0.9 0
0.1 0.95 0
0.15 0.95 0
0.15 0.9 0
0.2 0.9 0
0.15 0.95 0
0.2 0.95 0
0.2 0.9 0
0.25 0.9 0
0.2 0.95 0
0.25 0.95 0
0.25 0.9 0
0.3 0.9 0
0.25 0.95 0
0.3 0.95 0
0 0.95 0
0.05 0.95 0
0 1 0
0.05 1 0
0.05 0.95 0
0.1 0.95 0
0.05 1 0
0.1 1 0
0.1 0.95 0
0.15 0.95 0
0.1 1 0
0.15 1 0
0.15 0.95 0
0.2 0.95 0
0.15 1 0
0.2 1 0
0.2 0.95 0
0.25 0.95 0
0.2 1 0
0.25 1 0
0.25 0.95 0
0.3 0.95 0
0.25 1 0
0.3 1 0
0.3 0.95 0
0.35 0.95 0
0.3 1 0
0.35 1 0
0.35 0.95 0
0.4 0.95 0
0.35 1 0
0.4 1 0
0.4 0.95 0
0.45 0.95 0
0.4 1 0
0.45 1 0
0.45 0.95 0
0.5 0.95 0
0.45 1 0
0.5 1 0
0.5 0.95 0
0.55 0.95 0
0.5 1 0
0.55 1 0
0.55 0.95 0
0.6 0.95 0
0.55 1 0
0.6 1 0
0.6 0.95 0
0.65 0.95 0
0.6 1 0
0.65 1 0
0.65 0.95 0
0.7 0.95 0
0.65 1 0
0.7 1 0
0.7 0.95 0
0.75 0.95 0
0.7 1 0
0.75 1 0
0.75 0.95 0
0.8 0.95 0
0.75 1 0
0.8 1 0
0.8 0.95 0
0.85 0.95 0
0.8 1 0
0.85 1 0
0.85 0.95 0
0.9 0.95 0
0.85 1 0
0.9 1 0
0.9 0.95 0
0.95 0.95 0
0.9 1 0
0.95 1 0
0.95 0.95 0
1 0.95 0
0.95 1 0
1 1 0
1 0.95 0
1.05 0.95 0
1 1 0
1.05 1 0
1.05 0.95 0
1.1 0.95 0
1.05 1 0
1.1 1 0
1.1 0.95 0
1.15 0.95 0
1.1 1 0
1.15 1 0
1.15 0.95 0
1.2 0.95 0
1.15 1 0
1.2 1 0
1.2 0.95 0
1.25 0.95 0
1.2 1 0
1.25 1 0
1.25 0.95 0
1.3 0.95 0
1.25 1 0
1.3 1 0
1.3 0 0
1.325 0 0
1.3 0.025 0
1.325 0.025 0
1.325 0 0
1.35 0 0
1.325 0.025 0
1.35 0.025 0
1.3 0.025 0
1.325 0.025 0
1.3 0.05 0
1.325 0.05 0
1.325 0.025 0
1.35 0.025 0
1.325 0.05 0
1.35 0.05 0
1.35 0 0
1.375 0 0
1.35 0.025 0
1.375 0.025 0
1.375 0 0
1.4 0 0
1.375 0.025 0
1.4 0.025 0
1.35 0.025 0
1.375 0.025 0
1.35 0.05 0
1.375 0.05 0
1.375 0.025 0
1.4 0.025 0
1.375 0.05 0
1.4 0.05 0
1.4 0 0
1.425 0 0
1.4 0.025 0
1.425 0.025 0
1.425 0 0
1.45 0 0
1.425 0.025 0
1.45 0.025 0
1.4 0.025 0
1.425 0.025 0
1.4 0.05 0
1.425 0.05 0
1.425 0.025 0
1.45 0.025 0
1.425 0.05 0
1.45 0.05 0
1.45 0 0
1.475 0 0
1.45 0.025 0
1.475 0.025 0
1.475 0 0
1.5 0 0
1.475 0.025 0
1.5 0.025 0
1.45 0.025 0
1.475 0.025 0
1.45 0.05 0
1.475 0.05 0
1.475 0.025 0
1.5 0.025 0
1.475 0.05 0
1.5 0.05 0
1.5 0 0
1.525 0 0
1.5 0.025 0
1.525 0.025 0
1.525 0 0
1.55 0 0
1.525 0.025 0
1.55 0.025 0
1.5 0.025 0
1.525 0.025 0
1.5 0.05 0
1.525 0.05 0
1.525 0.025 0
1.55 0.025 0
1.525 0.05 0
1.55 0.05 0
1.55 0 0
1.575 0 0
1.55 0.025 0
1.575 0.025 0
1.575 0 0
1.6 0 0
1.575 0.025 0
1.6 0.025 0
1.55 0.025 0
1.575 0.025 0
1.55 0.05 0
1.575 0.05 0
1.575 0.025 0
1.6 0.025 0
1.575 0.05 0
1.6 0.05 0
1.6 0 0
1.625 0 0
1.6 0.025 0
1.625 0.025 0
1.625 0 0
1.65 0 0
1.625 0.025 0
1.65 0.025 0
1.6 0.025 0
1.625 0.025 0
1.6 0.05 0
1.625 0.05 0
1.625 0.025 0
1.65 0.025 0
1.625 0.05 0
1.65 0.05 0
1.65 0 0
1.675 0 0
1.65 0.025 0
1.675 0.025 0
1.675 0 0
1.7 0 0
1.675 0.025 0
1.7 0.025 0
1.65 0.025 0
1.675 0.025 0
1.65 0.05 0
1.675 0.05 0
1.675 0.025 0
1.7 0.025 0
1.675 0.05 0
1.7 0.05 0
1.7 0 0
1.725 0 0
1.7 0.025 0
1.725 0.025 0
1.725 0 0
1.75 0 0
1.725 0.025 0
1.75 0.025 0
1.7 0.025 0
1.725 0.025 0
1.7 0.05 0
1.725 0.05 0
1.725 0.025 0
1.75 0.025 0
1.725 0.05 0
1.75 0.05 0
1.75 0 0
1.775 0 0
1.75 0.025 0
1.775 0.025 0
1.775 0 0
1.8 0 0
1.775 0.025 0
1.8 0.025 0
1.75 0.025 0
1.775 0.025 0
1.75 0.05 0
1.775 0.05 0
1.775 0.025 0
1.8 0.025 0
1.775 0.05 0
1.8 0.05 0
1.8 0 0
1.825 0 0
1.8 0.025 0
1.825 0.025 0
1.825 0 0
1.85 0 0
1.825 0.025 0
1.85 0.025 0
1.8 0.025 0
1.825 0.025 0
1.8 0.05 0
1.825 0.05 0
1.825 0.025 0
1.85 0.025 0
1.825 0.05 0
1.85 0.05 0
1.85 0 0
1.875 0 0
1.85 0.025 0
1.875 0.025 0
1.875 0 0
1.9 0 0
1.875 0.025 0
1.9 0.025 0
1.85 0.025 0
1.875 0.025 0
1.85 0.05 0
1.875 0.05 0
1.875 0.025 0
1.9 0.025 0
1.875 0.05 0
1.9 0.05 0
1.9 0 0
1.925 0 0
1.9 0.025 0
1.925 0.025 0
1.925 0 0
1.95 0 0
1.925 0.025 0
1.95 0.025 0
1.9 0.025 0
1.925 0.025 0
1.9 0.05 0
1.925 0.05 0
1.925 0.025 0
1.95 0.025 0
1.925 0.05 0
1.95 0.05 0
1.95 0 0
1.975 0 0
1.95 0.025 0
1.975 0.025 0
1.975 0 0
2 0 0
1.975 0.025 0
2 0.025 0
1.95 0.025 0
1.975 0.025 0
1.95 0.05 0
1.975 0.05 0
1.975 0.025 0
2 0.025 0
1.975 0.05 0
2 0.05 0
0 0.05 0
0.025 0.05 0
0 0.075 0
0.025 0.075 0
0.025 0.05 0
0.05 0.05 0
0.025 0.075 0
0.05 0.075 0
0 0.075 0
0.025 0.075 0
0 0.1 0
0.025 0.1 0
0.025 0.075 0
0.05 0.075 0
0.025 0.1 0
0.05 0.1 0
0.05 0.05 0
0.075 0.05 0
0.05 0.075 0
0.075 0.075 0
0.075 0.05 0
0.1 0.05 0
0.075 0.075 0
0.1 0.075 0
0.05 0.075 0
0.075 0.075 0
0.05 0.1 0
0.075 0.1 0
0.075 0.075 0
0.1 0.075 0
0.075 0.1 0
0.1 0.1 0
0.3 0.05 0
0.325 0.05 0
0.3 0.075 0
0.325 0.075 0
0.325 0.05 0
0.35 0.05 0
0.325 0.075 0
0.35 0.075 0
0.3 0.075 0
0.325 0.075 0
0.3 0.1 0
0.325 0.1 0
0.325 0.075 0
0.35 0.075 0
0.325 0.1 0
0.35 0.1 0
0.35 0.05 0
0.375 0.05 0
0.35 0.075 0
0.375 0.075 0
0.375 0.05 0
0.4 0.05 0
0.375 0.075 0
0.4 0.075 0
0.35 0.075 0
0.375 0.075 0
0.35 0.1 0
0.375 0.1 0
0.375 0.075 0
0.4 0.075 0
0.375 0.1 0
0.4 0.1 0
0.4 0.05 0
0.425 0.05 0
0.4 0.075 0
0.425 0.075 0
0.425 0.05 0
0.45 0.05 0
0.425 0.075 0
0.45 0.075 0
0.4 0.075 0
0.425 0.075 0
0.4 0.1 0
0.425 0.1 0
0.425 0.075 0
0.45 0.075 0
0.425 0.1 0
0.45 0.1 0
0.45 0.05 0
0.475 0.05 0
0.45 0.075 0
0.475 0.075 0
0.475 0.05 0
0.5 0.05 0
0.475 0.075 0
0.5 0.075 0
0.45 0.075 0
0.475 0.075 0
0.45 0.1 0
0.475 0.1 0
0.475 0.075 0
0.5 0.075 0
0.475 0.1 0
0.5 0.1 0
0.5 0.05 0
0.525 0.05 0
0.5 0.075 0
0.525 0.075 0
0.525 0.05 0
0.55 0.05 0
0.525 0.075 0
0.55 0.075 0
0.5 0.075 0
0.525 0.075 0
0.5 0.1 0
0.525 0.1 0
0.525 0.075 0
0.55 0.075 0
0.525 0.1 0
0.55 0.1 0
0.55 0.05 0
0.575 0.05 0
0.55 0.075 0
0.575 0.075 0
0.575 0.05 0
0.6 0.05 0
0.575 0.075 0
0.6 0.075 0
0.55 0.075 0
0.575 0.075 0
0.55 0.1 0
0.575 0.1 0
0.575 0.075 0
0.6 0.075 0
0.575 0.1 0
0.6 0.1 0
0.6 0.05 0
0.625 0.05 0
0.6 0.075 0
0.625 0.075 0
0.625 0.05 0
0.65 0.05 0
0.625 0.075 0
0.65 0.075 0
0.6 0.075 0
0.625 0.075 0
0.6 0.1 0
0.625 0.1 0
0.625 0.075 0
0.65 0.075 0
0.625 0.1 0
0.65 0.1 0
0.65 0.05 0
0.675 0.05 0
0.65 0.075 0
0.675 0.075 0
0.675 0.05 0
0.7 0.05 0
0.675 0.075 0
0.7 0.075 0
0.65 0.075 0
0.675 0.075 0
0.65 0.1 0
0.675 0.1 0
0.675 0.075 0
0.7 0.075 0
0.675 0.1 0
0.7 0.1 0
0.7 0.05 0
0.725 0.05 0
0.7 0.075 0
0.725 0.075 0
0.725 0.05 0
0.75 0.05 0
0.725 0.075 0
0.75 0.075 0
0.7 0.075 0
0.725 0.075 0
0.7 0.1 0
0.725 0.1 0
0.725 0.075 0
0.75 0.075 0
0.725 0.1 0
0.75 0.1 0
0.75 0.05 0
0.775 0.05 0
0.75 0.075 0
0.775 0.075 0
0.775 0.05 0
0.8 0.05 0
0.775 0.075 0
0.8 0.075 0
0.75 0.075 0
0.775 0.075 0
0.75 0.1 0
0.775 0.1 0
0.775 0.075 0
0.8 0.075 0
0.775 0.1 0
0.8 0.1 0
0.8 0.05 0
0.825 0.05 0
0.8 0.075 0
0.825 0.075 0
0.825 0.05 0
0.85 0.05 0
0.825 0.075 0
0.85 0.075 0
0.8 0.075 0
0.825 0.075 0
0.8 0.1 0
0.825 0.1 0
0.825 0.075 0
0.85 0.075 0
0.825 0.1 0
0.85 0.1 0
0.85 0.05 0
0.875 0.05 0
0.85 0.075 0
0.875 0.075 0
0.875 0.05 0
0.9 0.05 0
0.875 0.075 0
0.9 0.075 0
0.85 0.075 0
0.875 0.075 0
0.85 0.1 0
0.875 0.1 0
0.875 0.075 0
0.9 0.075 0
0.875 0.1 0
0.9 0.1 0
0.9 0.05 0
0.925 0.05 0
0.9 0.075 0
0.925 0.075 0
0.925 0.05 0
0.95 0.05 0
0.925 0.075 0
0.95 0.075 0
0.9 0.075 0
0.925 0.075 0
0.9 0.1 0
0.925 0.1 0
0.925 0.075 0
0.95 0.075 0
0.925 0.1 0
0.95 0.1 0
0.95 0.05 0
0.975 0.05 0
0.95 0.075 0
0.975 0.075 0
0.975 0.05 0
1 0.05 0
0.975 0.075 0
1 0.075 0
0.95 0.075 0
0.975 0.075 0
0.95 0.1 0
0.975 0.1 0
0.975 0.075 0
1 0.075 0
0.975 0.1 0
1 0.1 0
1 0.05 0
1.025 0.05 0
1 0.075 0
1.025 0.075 0
1.025 0.05 0
1.05 0.05 0
1.025 0.075 0
1.05 0.075 0
1 0.075 0
1.025 0.075 0
1 0.1 0
1.025 0.1 0
1.025 0.075 0
1.05 0.075 0
1.025 0.1 0
1.05 0.1 0
1.05 0.05 0
1.075 0.05 0
1.05 0.075 0
1.075 0.075 0
1.075 0.05 0
1.1 0.05 0
1.075 0.075 0
1.1 0.075 0
1.05 0.075 0
1.075 0.075 0
1.05 0.1 0
1.075 0.1 0
1.075 0.075 0
1.1 0.075 0
1.075 0.1 0
1.1 0.1 0
1.1 0.05 0
1.125 0.05 0
1.1 0.075 0
1.125 0.075 0
1.125 0.05 0
1.15 0.05 0
1.125 0.075 0
1.15 0.075 0
1.1 0.075 0
1.125 0.075 0
1.1 0.1 0
1.125 0.1 0
1.125 0.075 0
1.15 0.075 0
1.125 0.1 0
1.15 0.1 0
1.15 0.05 0
1.175 0.05 0
1.15 0.075 0
1.175 0.075 0
1.175 0.05 0
1.2 0.05 0
1.175 0.075 0
1.2 0.075 0
1.15 0.075 0
1.175 0.075 0
1.15 0.1 0
1.175 0.1 0
1.175 0.075 0
1.2 0.075 0
1.175 0.1 0
1.2 0.1 0
1.2 0.05 0
1.225 0.05 0
1.2 0.075 0
1.225 0.075 0
1.225 0.05 0
1.25 0.05 0
1.225 0.075 0
1.25 0.075 0
1.2 0.075 0
1.225 0.075 0
1.2 0.1 0
1.225 0.1 0
1.225 0.075 0
[...]
POINT_DATA 11912
SCALARS x_displacement double 1
LOOKUP_TABLE default
0 -1.47745 0 -0.857993 -1.47745 -2.57787 -0.857993 -1.75295 -2.57787 -3.47788 -1.75295 -2.53218 -3.47788 -4.24479 -2.53218 -3.22285 -4.24479 -4.92445 -3.22285 -3.83962 -4.92445 -5.56032 -3.83962 -4.40057 -5.56032 -6.1901 -4.40057 -4.93896 -6.1901 -6.83539 -4.93896 -5.47517 -6.83539 -7.48005 -5.47517 -6.03238 -7.48005 -8.09702 -6.03238 -6.60751 -8.09702 -8.6759 -6.60751 -7.19475 -8.6759 -9.23338 -7.19475 -7.77563 -9.23338 -9.79255 -7.77563 -8.34385 -9.79255 -10.3682 -8.34385 -8.89121 -10.3682 -10.9519 -8.89121 -9.42011 -10.9519 -11.5297 -9.42011 -9.93845 -11.5297 -12.0925 -9.93845 -10.4518 -12.0925 -12.637 -10.4518 -10.9627 -12.637 -13.1629 -10.9627 -11.4717 -13.1629 -13.6708 -11.4717 -11.9779 -13.6708 -14.1685 -11.9779 -12.4763 -14.1685 -14.6788 -12.4763 -12.9606 -14.6788 -15.2285 -12.9606 -13.4299 -15.2285 -15.8039 -13.4299 -13.8845 -15.8039 -16.3163 -13.8845 -14.3075 -16.3163 -16.6883 -14.3075 -14.6928 -1.75295 -2.53218 -1.1971 -1.80451 -2.53218 -3.22285 -1.80451 -2.36744 -3.22285 -3.83962 -2.36744 -2.87811 -3.83962 -4.40057 -2.87811 -3.32541 -2.36744 -2.87811 -1.62643 -2.04216 -2.87811 -3.32541 -2.04216 -2.41192 -1.04762 -1.17021 -0.0185768 -0.0174639 -1.17021 -1.23256 -0.0174639 -0.017122 -1.35883 -1.36662 -0.0145786 -0.0150943 -2.07901 -2.34095 -0.0158126 -0.0158952 -2.34095 -2.41459 -0.0158952 -0.0159473 -0.228301 -0.135744 0.333877 0.47706 -0.0185768 -0.0174639 1.01163 1.1356 -0.0174639 -0.017122 1.1356 1.19859 -0.0158126 -0.0158952 2.04716 2.30904 -0.0158952 -0.0159473 2.30904 2.38257 1.61493 2.03148 2.36231 2.87259 2.03148 2.40174 2.87259 3.31954 1.19276 1.79973 1.75526 2.53464 1.79973 2.36231 2.53464 3.22457 2.36231 2.87259 3.22457 3.83987 2.87259 3.31954 3.83987 4.39896 0 0.85937 0 1.48569 0.85937 1.75526 1.48569 2.58955 1.75526 2.53464 2.58955 3.48983 2.53464 3.22457 3.48983 4.25512 3.22457 3.83987 4.25512 4.93181 3.83987 4.39896 4.93181 5.56359 4.39896 4.93508 5.56359 6.18816 4.93508 5.46856 6.18816 6.82699 5.46856 6.02198 6.82699 7.4647 6.02198 6.59237 7.4647 8.07628 6.59237 7.17416 8.07628 8.65243 7.17416 7.74967 8.65243 9.20822 7.74967 8.31383 9.20822 9.7648 8.31383 8.85847 9.7648 10.3368 8.85847 9.3858 10.3368 10.9166 9.3858 9.90309 10.9166 11.4911 9.90309 10.4158 11.4911 12.0512 10.4158 10.9262 12.0512 12.5941 10.9262 11.4349 12.5941 13.1193 11.4349 11.941 13.1193 13.6277 11.941 12.4397 13.6277 14.1266 12.4397 12.9244 14.1266 14.6382 12.9244 13.3943 14.6382 15.1891 13.3943 13.8497 15.1891 15.766 13.8497 14.273 15.766 16.2793 14.273 14.6585 16.2793 16.6515 -16.6883 -16.8462 -15.6905 -15.8425 -16.8462 -16.9721 -15.8425 -16.0006 -15.6905 -15.8425 -14.6928 -14.8692 -15.8425 -16.0006 -14.8692 -15.0203 -16.9721 -17.0893 -16.0006 -16.1569 -17.0893 -17.1232 -16.1569 -16.3021 -16.0006 -16.1569 -15.0203 -15.1533 -16.1569 -16.3021 -15.1533 -15.2871 -17.1232 -17.2158 -16.3021 -16.4084 -17.2158 -17.7216 -16.4084 -16.4495 -16.3021 -16.4084 -15.2871 -15.4282 -16.4084 -16.4495 -15.4282 -15.5145 -17.7216 -18.023 -16.4495 -16.723 -18.023 -18.2643 -16.723 -16.9716 -16.4495 -16.723 -15.5145 -15.5479 -16.723 -16.9716 -15.5479 -15.6651 -18.2643 -18.4845 -16.9716 -17.1891 -18.4845 -18.6771 -17.1891 -17.3975 -16.9716 -17.1891 -15.6651 -15.9525 -17.1891 -17.3975 -15.9525 -16.167 -18.6771 -18.8529 -17.3975 -17.5843 -18.8529 -19.011 -17.5843 -17.7518 -17.3975 -17.5843 -16.167 -16.3573 -17.5843 -17.7518 -16.3573 -16.5353 -19.011 -19.1508 -17.7518 -17.9015 -19.1508 -19.2721 -17.9015 -18.0331 -17.7518 -17.9015 -16.5353 -16.6928 -17.9015 -18.0331 -16.6928 -16.8327 -19.2721 -19.3754 -18.0331 -18.1476 -19.3754 -19.4614 -18.1476 -18.2461 -18.0331 -18.1476 -16.8327 -16.9574 -18.1476 -18.2461 -16.9574 -17.0671 -19.4614 -19.5307 -18.2461 -18.3287 -19.5307 -19.5838 -18.3287 -18.396 -18.2461 -18.3287 -17.0671 -17.1617 -18.3287 -18.396 -17.1617 -17.2414 -19.5838 -19.6214 -18.396 -18.4489 -19.6214 -19.6448 -18.4489 -18.4884 -18.396 -18.4489 -17.2414 -17.3069 -18.4489 -18.4884 -17.3069 -17.3593 -19.6448 -19.6557 -18.4884 -18.516 -19.6557 -19.6565 -18.516 -18.5334 -18.4884 -18.516 -17.3593 -17.3995 -18.516 -18.5334 -17.3995 -17.4288 -19.6565 -19.6499 -18.5334 -18.5427 -19.6499 -19.6391 -18.5427 -18.5461 -18.5334 -18.5427 -17.4288 -17.4488 -18.5427 -18.5461 -17.4488 -17.4611 -19.6391 -19.6277 -18.5461 -18.5459 -19.6277 -19.6187 -18.5459 -18.5444 -18.5461 -18.5459 -17.4611 -17.4677 -18.5459 -18.5444 -17.4677 -17.4705 -19.6187 -19.6141 -18.5444 -18.5431 -19.6141 -19.6131 -18.5431 -18.5431 -18.5444 -18.5431 -17.4705 -17.4717 -18.5431 -18.5431 -17.4717 -17.4732 0 -0.428997 0 -0.353584 -0.428997 -0.857993 -0.353584 -0.722676 0 -0.353584 0 -0.278617 -0.353584 -0.722676 -0.278617 -0.592931 -0.857993 -1.30547 -0.722676 -1.09337 -1.30547 -1.75295 -1.09337 -1.47502 -0.722676 -1.09337 -0.592931 -0.900865 -1.09337 -1.47502 -0.900865 -1.1971 -4.40057 -4.66976 -3.86299 -4.08894 -4.66976 -4.93896 -4.08894 -4.31427 -3.86299 -4.08894 -3.32541 -3.53122 -4.08894 -4.31427 -3.53122 -3.70801 -4.93896 -5.20707 -4.31427 -4.54533 -5.20707 -5.47517 -4.54533 -4.78807 -4.31427 -4.54533 -3.70801 -3.88384 -4.54533 -4.78807 -3.88384 -4.08895 -5.47517 -5.75377 -4.78807 -5.03535 -5.75377 -6.03238 -5.03535 -5.28981 -4.78807 -5.03535 -4.08895 -4.30653 -5.03535 -5.28981 -4.30653 -4.51717 -6.03238 -6.31994 -5.28981 -5.56778 -6.31994 -6.60751 -5.56778 -5.86233 -5.28981 -5.56778 -4.51717 -4.77906 -5.56778 -5.86233 -4.77906 -5.10702 -6.60751 -6.90113 -5.86233 -6.16118 -6.90113 -7.19475 -6.16118 -6.4512 -5.86233 -6.16118 -5.10702 -5.41581 -6.16118 -6.4512 -5.41581 -5.68751 -7.19475 -7.48519 -6.4512 -6.75796 -7.48519 -7.77563 -6.75796 -7.06038 -6.4512 -6.75796 -5.68751 -6.02864 -6.75796 -7.06038 -6.02864 -6.37215 -7.77563 -8.05974 -7.06038 -7.35287 -8.05974 -8.34385 -7.35287 -7.63682 -7.06038 -7.35287 -6.37215 -6.67001 -7.35287 -7.63682 -6.67001 -6.95174 -8.34385 -8.61753 -7.63682 -7.90314 -8.61753 -8.89121 -7.90314 -8.16409 -7.63682 -7.90314 -6.95174 -7.20164 -7.90314 -8.16409 -7.20164 -7.44662 -8.89121 -9.15566 -8.16409 -8.41488 -9.15566 -9.42011 -8.41488 -8.66068 -8.16409 -8.41488 -7.44662 -7.68018 -8.41488 -8.66068 -7.68018 -7.90245 -9.42011 -9.67928 -8.66068 -8.90418 -9.67928 -9.93845 -8.90418 -9.14704 -8.66068 -8.90418 -7.90245 -8.12691 -8.90418 -9.14704 -8.12691 -8.35283 -9.93845 -10.1951 -9.14704 -9.39067 -10.1951 -10.4518 -9.39067 -9.6356 -9.14704 -9.39067 -8.35283 -8.58258 -9.39067 -9.6356 -8.58258 -8.81599 -10.4518 -10.7073 -9.6356 -9.88187 -10.7073 -10.9627 -9.88187 -10.1298 -9.6356 -9.88187 -8.81599 -9.05293 -9.88187 -10.1298 -9.05293 -9.29337 -10.9627 -11.2172 -10.1298 -10.3791 -11.2172 -11.4717 -10.3791 -10.63 -10.1298 -10.3791 -9.29337 -9.5373 -10.3791 -10.63 -9.5373 -9.78471 -11.4717 -11.7248 -10.63 -10.8821 -11.7248 -11.9779 -10.8821 -11.1349 -10.63 -10.8821 -9.78471 -10.0356 -10.8821 -11.1349 -10.0356 -10.29 -11.9779 -12.2271 -11.1349 -11.3868 -12.2271 -12.4763 -11.3868 -11.6348 -11.1349 -11.3868 -10.29 -10.5471 -11.3868 -11.6348 -10.5471 -10.8045 -12.4763 -12.7184 -11.6348 -11.8774 -12.7184 -12.9606 -11.8774 -12.1101 -11.6348 -11.8774 -10.8045 -11.0554 -11.8774 -12.1101 -11.0554 -11.2914 -12.9606 -13.1952 -12.1101 -12.335 -13.1952 -13.4299 -12.335 -12.5494 -12.1101 -12.335 -11.2914 -11.5114 -12.335 -12.5494 -11.5114 -11.7177 -13.4299 -13.6572 -12.5494 -12.7619 -13.6572 -13.8845 -12.7619 -12.9661 -12.5494 -12.7619 -11.7177 -11.9062 -12.7619 -12.9661 -11.9062 -12.0802 -13.8845 -14.096 -12.9661 -13.1653 -14.096 -14.3075 -13.1653 -13.3562 -12.9661 -13.1653 -12.0802 -12.245 -13.1653 -13.3562 -12.245 -12.4064 -14.3075 -14.5001 -13.3562 -13.5389 -14.5001 -14.6928 -13.5389 -13.7086 -13.3562 -13.5389 -12.4064 -12.5643 -13.5389 -13.7086 -12.5643 -12.7119 -14.6928 -14.8692 -13.7086 -13.8607 -14.8692 -15.0203 -13.8607 -14.001 -13.7086 -13.8607 -12.7119 -12.8477 -13.8607 -14.001 -12.8477 -12.9768 -15.0203 -15.1533 -14.001 -14.1354 -15.1533 -15.2871 -14.1354 -14.2664 -14.001 -14.1354 -12.9768 -13.103 -14.1354 -14.2664 -13.103 -13.2302 -15.2871 -15.4282 -14.2664 -14.3839 -15.4282 -15.5145 -14.3839 -14.5102 -14.2664 -14.3839 -13.2302 -13.3577 -14.3839 -14.5102 -13.3577 -13.4875 -15.5145 -15.5479 -14.5102 -14.6582 -15.5479 -15.6651 -14.6582 -14.7489 -14.5102 -14.6582 -13.4875 -13.6209 -14.6582 -14.7489 -13.6209 -13.7626 -15.6651 -15.9525 -14.7489 -14.7651 -15.9525 -16.167 -14.7651 -14.9805 -14.7489 -14.7651 -13.7626 -13.8578 -14.7651 -14.9805 -13.8578 -13.9012 -16.167 -16.3573 -14.9805 -15.1783 -16.3573 -16.5353 -15.1783 -15.359 -14.9805 -15.1783 -13.9012 -14.0033 -15.1783 -15.359 -14.0033 -14.2202 -16.5353 -16.6928 -15.359 -15.5214 -16.6928 -16.8327 -15.5214 -15.6685 -15.359 -15.5214 -14.2202 -14.3862 -15.5214 -15.6685 -14.3862 -14.5332 -16.8327 -16.9574 -15.6685 -15.8021 -16.9574 -17.0671 -15.8021 -15.9231 -15.6685 -15.8021 -14.5332 -14.6839 -15.8021 -15.9231 -14.6839 -14.8134 -17.0671 -17.1617 -15.9231 -16.0281 -17.1617 -17.2414 -16.0281 -16.1181 -15.9231 -16.0281 -14.8134 -14.9257 -16.0281 -16.1181 -14.9257 -15.0247 -17.2414 -17.3069 -16.1181 -16.1941 -17.3069 -17.3593 -16.1941 -16.2568 -16.1181 -16.1941 -15.0247 -15.1098 -16.1941 -16.2568 -15.1098 -15.1811 -17.3593 -17.3995 -16.2568 -16.3067 -17.3995 -17.4288 -16.3067 -16.3448 -16.2568 -16.3067 -15.1811 -15.2388 -16.3067 -16.3448 -15.2388 -15.2834 -17.4288 -17.4488 -16.3448 -16.372 -17.4488 -17.4611 -16.372 -16.3899 -16.3448 -16.372 -15.2834 -15.3159 -16.372 -16.3899 -15.3159 -15.3373 -17.4611 -17.4677 -16.3899 -16.4003 -17.4677 -17.4705 -16.4003 -16.4052 -16.3899 -16.4003 -15.3373 -15.3495 -16.4003 -16.4052 -15.3495 -15.355 -17.4705 -17.4717 -16.4052 -16.4074 -17.4717 -17.4732 -16.4074 -16.4098 -16.4052 -16.4074 -15.355 -15.3569 -16.4074 -16.4098 -15.3569 -15.3593 0 -0.278617 0 -0.219823 -0.278617 -0.592931 -0.219823 -0.469389 0 -0.219823 0 -0.129008 -0.219823 -0.469389 -0.129008 -0.285087 -0.592931 -0.900865 -0.469389 -0.704935 -0.900865 -1.1971 -0.704935 -0.966717 -0.469389 -0.704935 -0.285087 -0.503064 -0.704935 -0.966717 -0.503064 -0.755582 -1.1971 -1.5008 -0.966717 -1.23293 -1.5008 -1.80451 -1.23293 -1.48923 -0.966717 -1.23293 -0.755582 -0.970864 -1.23293 -1.48923 -0.970864 -1.19035 -1.80451 -2.08598 -1.48923 -1.74426 -2.08598 -2.36744 -1.74426 -1.99694 -1.48923 -1.74426 -1.19035 -1.41414 -1.74426 -1.99694 -1.41414 -1.62643 -3.32541 -3.53122 -2.86866 -3.02968 -3.53122 -3.70801 -3.02968 -3.17369 -2.86866 -3.02968 -2.41192 -2.58122 -3.02968 -3.17369 -2.58122 -2.72774 -3.70801 -3.88384 -3.17369 -3.29351 -3.88384 -4.08895 -3.29351 -3.41734 -3.17369 -3.29351 -2.72774 -2.85394 -3.29351 -3.41734 -2.85394 -2.97954 -4.08895 -4.30653 -3.41734 -3.58291 -4.30653 -4.51717 -3.58291 -3.78389 -3.41734 -3.58291 -2.97954 -3.11391 -3.58291 -3.78389 -3.11391 -3.25431 -4.51717 -4.77906 -3.78389 -4.00879 -4.77906 -5.10702 -4.00879 -4.28204 -3.78389 -4.00879 -3.25431 -3.40385 -4.00879 -4.28204 -3.40385 -3.51567 -5.10702 -5.41581 -4.28204 -4.59582 -5.41581 -5.68751 -4.59582 -4.91537 -4.28204 -4.59582 -3.51567 -3.65355 -4.59582 -4.91537 -3.65355 -4.00597 -5.68751 -6.02864 -4.91537 -5.29001 -6.02864 -6.37215 -5.29001 -5.69066 -4.91537 -5.29001 -4.00597 -4.63097 -5.29001 -5.69066 -4.63097 -5.02339 -6.37215 -6.67001 -5.69066 -5.99636 -6.67001 -6.95174 -5.99636 -6.25853 -5.69066 -5.99636 -5.02339 -5.28065 -5.99636 -6.25853 -5.28065 -5.59592 -6.95174 -7.20164 -6.25853 -6.49971 -7.20164 -7.44662 -6.49971 -6.72058 -6.25853 -6.49971 -5.59592 -5.76094 -6.49971 -6.72058 -5.76094 -6.00735 -7.44662 -7.68018 -6.72058 -6.94039 -7.68018 -7.90245 -6.94039 -7.13907 -6.72058 -6.94039 -6.00735 -6.18627 -6.94039 -7.13907 -6.18627 -6.37525 -7.90245 -8.12691 -7.13907 -7.34579 -8.12691 -8.35283 -7.34579 -7.55511 -7.13907 -7.34579 -6.37525 -6.56256 -7.34579 -7.55511 -6.56256 -6.75669 -8.35283 -8.58258 -7.55511 -7.77122 -8.58258 -8.81599 -7.77122 -7.99324 -7.55511 -7.77122 -6.75669 -6.95944 -7.77122 -7.99324 -6.95944 -7.17004 -8.81599 -9.05293 -7.99324 -8.22082 -9.05293 -9.29337 -8.22082 -8.45388 -7.99324 -8.22082 -7.17004 -7.38829 -8.22082 -8.45388 -7.38829 -7.61395 -9.29337 -9.5373 -8.45388 -8.69234 -9.5373 -9.78471 -8.69234 -8.9362 -8.45388 -8.69234 -7.61395 -7.84693 -8.69234 -8.9362 -7.84693 -8.08722 -9.78471 -10.0356 -8.9362 -9.18569 -10.0356 -10.29 -9.18569 -9.44209 -8.9362 -9.18569 -8.08722 -8.33536 -9.18569 -9.44209 -8.33536 -8.59458 -10.29 -10.5471 -9.44209 -9.71006 -10.5471 -10.8045 -9.71006 -9.99456 -9.44209 -9.71006 -8.59458 -8.87979 -9.71006 -9.99456 -8.87979 -9.22259 -10.8045 -11.0554 -9.99456 -10.2731 -11.0554 -11.2914 -10.2731 -10.5229 -9.99456 -10.2731 -9.22259 -9.54612 -10.2731 -10.5229 -9.54612 -9.88321 -11.2914 -11.5114 -10.5229 -10.7623 -11.5114 -11.7177 -10.7623 -10.9606 -10.5229 -10.7623 -9.88321 -10.1411 -10.7623 -10.9606 -10.1411 -10.2605 -11.7177 -11.9062 -10.9606 -11.1042 -11.9062 -12.0802 -11.1042 -11.2223 -10.9606 -11.1042 -10.2605 -10.3324 -11.1042 -11.2223 -10.3324 -10.3865 -12.0802 -12.245 -11.2223 -11.3324 -12.245 -12.4064 -11.3324 -11.4425 -11.2223 -11.3324 -10.3865 -10.4322 -11.3324 -11.4425 -10.4322 -10.4721 -12.4064 -12.5643 -11.4425 -11.5569 -12.5643 -12.7119 -11.5569 -11.6809 -11.4425 -11.5569 -10.4721 -10.5157 -11.5569 -11.6809 -10.5157 -10.594 -12.7119 -12.8477 -11.6809 -11.8068 -12.8477 -12.9768 -11.8068 -11.9308 -11.6809 -11.8068 -10.594 -10.7131 -11.8068 -11.9308 -10.7131 -10.8551 -12.9768 -13.103 -11.9308 -12.0586 -13.103 -13.2302 -12.0586 -12.1903 -11.9308 -12.0586 -10.8551 -11.0008 -12.0586 -12.1903 -11.0008 -11.1424 -13.2302 -13.3577 -12.1903 -12.3229 -13.3577 -13.4875 -12.3229 -12.4585 -12.1903 -12.3229 -11.1424 -11.2832 -12.3229 -12.4585 -11.2832 -11.4241 -13.4875 -13.6209 -12.4585 -12.5963 -13.6209 -13.7626 -12.5963 -12.7239 -12.4585 -12.5963 -11.4241 -11.5658 -12.5963 -12.7239 -11.5658 -11.7081 -13.7626 -13.8578 -12.7239 -12.8641 -13.8578 -13.9012 -12.8641 -13.033 -12.7239 -12.8641 -11.7081 -11.8547 -12.8641 -13.033 -11.8547 -11.9948 -13.9012 -14.0033 -13.033 -13.1232 -14.0033 -14.2202 -13.1232 -13.0999 -13.033 -13.1232 -11.9948 -12.1292 -13.1232 -13.0999 -12.1292 -12.2439 -14.2202 -14.3862 -13.0999 -13.2533 -14.3862 -14.5332 -13.2533 -13.4486 -13.0999 -13.2533 -12.2439 -12.3524 -13.2533 -13.4486 -12.3524 -12.3875 -14.5332 -14.6839 -13.4486 -13.6045 -14.6839 -14.8134 -13.6045 -13.7325 -13.4486 -13.6045 -12.3875 -12.5416 -13.6045 -13.7325 -12.5416 -12.6772 -14.8134 -14.9257 -13.7325 -13.8528 -14.9257 -15.0247 -13.8528 -13.9604 -13.7325 -13.8528 -12.6772 -12.8083 -13.8528 -13.9604 -12.8083 -12.925 -15.0247 -15.1098 -13.9604 -14.0536 -15.1098 -15.1811 -14.0536 -14.1323 -13.9604 -14.0536 -12.925 -13.0249 -14.0536 -14.1323 -13.0249 -13.1101 -15.1811 -15.2388 -14.1323 -14.1967 -15.2388 -15.2834 -14.1967 -14.2468 -14.1323 -14.1967 -13.1101 -13.1814 -14.1967 -14.2468 -13.1814 -13.2366 -15.2834 -15.3159 -14.2468 -14.2832 -15.3159 -15.3373 -14.2832 -14.307 -14.2468 -14.2832 -13.2366 -13.2764 -14.2832 -14.307 -13.2764 -13.3023 -15.3373 -15.3495 -14.307 -14.32 -15.3495 -15.355 -14.32 -14.3249 -14.307 -14.32 -13.3023 -13.3157 -14.32 -14.3249 -13.3157 -13.3194 -15.355 -15.3569 -14.3249 -14.3256 -15.3569 -15.3593 -14.3256 -14.327 -14.3249 -14.3256 -13.3194 -13.3179 -14.3256 -14.327 -13.3179 -13.3171 0 -0.129008 0 -0.0896434 -0.129008 -0.285087 -0.0896434 -0.0734524 0 -0.0896434 0 -0.127471 -0.0896434 -0.0734524 -0.127471 -0.285268 -0.285087 -0.503064 -0.0734524 -0.311446 -0.503064 -0.755582 -0.311446 -0.51349 -0.0734524 -0.311446 -0.285268 -0.48751 -0.311446 -0.51349 -0.48751 -0.303279 -0.755582 -0.970864 -0.51349 -0.708772 -0.970864 -1.19035 -0.708772 -0.908238 -0.51349 -0.708772 -0.303279 -0.434169 -0.708772 -0.908238 -0.434169 -0.596409 -1.19035 -1.41414 -0.908238 -1.09026 -1.41414 -1.62643 -1.09026 -1.27945 -0.908238 -1.09026 -0.596409 -0.766785 -1.09026 -1.27945 -0.766785 -0.947662 -1.62643 -1.8343 -1.27945 -1.47407 -1.8343 -2.04216 -1.47407 -1.65793 -1.27945 -1.47407 -0.947662 -1.11305 -1.47407 -1.65793 -1.11305 -1.28545 -2.04216 -2.22704 -1.65793 -1.83802 -2.22704 -2.41192 -1.83802 -2.01005 -1.65793 -1.83802 -1.28545 -1.46208 -1.83802 -2.01005 -1.46208 -1.62994 -2.41192 -2.58122 -2.01005 -2.17446 -2.58122 -2.72774 -2.17446 -2.33185 -2.01005 -2.17446 -1.62994 -1.79462 -2.17446 -2.33185 -1.79462 -1.95849 -2.72774 -2.85394 -2.33185 -2.48349 -2.85394 -2.97954 -2.48349 -2.63544 -2.33185 -2.48349 -1.95849 -2.12057 -2.48349 -2.63544 -2.12057 -2.28091 -2.97954 -3.11391 -2.63544 -2.78382 -3.11391 -3.25431 -2.78382 -2.93016 -2.63544 -2.78382 -2.28091 -2.44192 -2.78382 -2.93016 -2.44192 -2.60974 -3.25431 -3.40385 -2.93016 -3.08595 -3.40385 -3.51567 -3.08595 -3.24331 -2.93016 -3.08595 -2.60974 -2.77619 -3.08595 -3.24331 -2.77619 -2.94125 -3.51567 -3.65355 -3.24331 -3.4293 -3.65355 -4.00597 -3.4293 -3.59879 -3.24331 -3.4293 -2.94125 -3.12487 -3.4293 -3.59879 -3.12487 -3.30882 -4.00597 -4.63097 -3.59879 -3.48862 -4.63097 -5.02339 -3.48862 -3.6902 -3.59879 -3.48862 -3.30882 -3.49654 -3.48862 -3.6902 -3.49654 -3.68293 -5.02339 -5.28065 -3.6902 -4.26921 -5.28065 -5.59592 -4.26921 -4.69105 -3.6902 -4.26921 -3.68293 -3.5923 -4.26921 -4.69105 -3.5923 -3.58066 -5.59592 -5.76094 -4.69105 -4.97068 -5.76094 -6.00735 -4.97068 -5.2209 -4.69105 -4.97068 -3.58066 -4.11453 -4.97068 -5.2209 -4.11453 -4.51444 -6.00735 -6.18627 -5.2209 -5.50239 -6.18627 -6.37525 -5.50239 -5.75019 -5.2209 -5.50239 -4.51444 -4.81196 -5.50239 -5.75019 -4.81196 -5.09719 -6.37525 -6.56256 -5.75019 -5.98487 -6.56256 -6.75669 -5.98487 -6.21294 -5.75019 -5.98487 -5.09719 -5.35784 -5.98487 -6.21294 -5.35784 -5.6278 -6.75669 -6.95944 -6.21294 -6.44654 -6.95944 -7.17004 -6.44654 -6.68923 -6.21294 -6.44654 -5.6278 -5.8816 -6.44654 -6.68923 -5.8816 -6.15758 -7.17004 -7.38829 -6.68923 -6.94477 -7.38829 -7.61395 -6.94477 -7.20865 -6.68923 -6.94477 -6.15758 -6.44912 -6.94477 -7.20865 -6.44912 -6.74402 -7.61395 -7.84693 -7.20865 -7.47878 -7.84693 -8.08722 -7.47878 -7.75992 -7.20865 -7.47878 -6.74402 -7.03789 -7.47878 -7.75992 -7.03789 -7.33198 -8.08722 -8.33536 -7.75992 -8.07189 -8.33536 -8.59458 -8.07189 -8.46263 -7.75992 -8.07189 -7.33198 -7.62442 -8.07189 -8.46263 -7.62442 -7.89223 -8.59458 -8.87979 -8.46263 -9.05045 -8.87979 -9.22259 -9.05045 -9.23601 -8.46263 -9.05045 -7.89223 -8.14573 -9.05045 -9.23601 -8.14573 -8.44937 -9.22259 -9.54612 -9.23601 -9.3134 -9.54612 -9.88321 -9.3134 -9.42886 -9.23601 -9.3134 -8.44937 -8.7065 -9.3134 -9.42886 -8.7065 -8.72593 -9.88321 -10.1411 -9.42886 -9.49575 -10.1411 -10.2605 -9.49575 -9.53754 -9.42886 -9.49575 -8.72593 -8.75288 -9.49575 -9.53754 -8.75288 -8.76505 -10.2605 -10.3324 -9.53754 -9.55775 -10.3324 -10.3865 -9.55775 -9.5623 -9.53754 -9.55775 -8.76505 -8.76088 -9.55775 -9.5623 -8.76088 -8.73391 -10.3865 -10.4322 -9.5623 -9.55157 -10.4322 -10.4721 -9.55157 -9.52728 -9.5623 -9.55157 -8.73391 -8.68713 -9.55157 -9.52728 -8.68713 -8.62069 -10.4721 -10.5157 -9.52728 -9.48362 -10.5157 -10.594 -9.48362 -9.45507 -9.52728 -9.48362 -8.62069 -8.53803 -9.48362 -9.45507 -8.53803 -8.36063 -10.594 -10.7131 -9.45507 -9.59324 -10.7131 -10.8551 -9.59324 -9.77605 -9.45507 -9.59324 -8.36063 -8.47915 -9.59324 -9.77605 -8.47915 -8.6834 -10.8551 -11.0008 -9.77605 -9.92664 -11.0008 -11.1424 -9.92664 -10.083 -9.77605 -9.92664 -8.6834 -8.85942 -9.92664 -10.083 -8.85942 -9.03867 -11.1424 -11.2832 -10.083 -10.2416 -11.2832 -11.4241 -10.2416 -10.3916 -10.083 -10.2416 -9.03867 -9.1999 -10.2416 -10.3916 -9.1999 -9.35868 -11.4241 -11.5658 -10.3916 -10.5394 -11.5658 -11.7081 -10.5394 -10.6865 -10.3916 -10.5394 -9.35868 -9.51709 -10.5394 -10.6865 -9.51709 -9.66885 -11.7081 -11.8547 -10.6865 -10.8356 -11.8547 -11.9948 -10.8356 -10.9782 -10.6865 -10.8356 -9.66885 -9.81754 -10.8356 -10.9782 -9.81754 -9.96378 -11.9948 -12.1292 -10.9782 -11.1089 -12.1292 -12.2439 -11.1089 -11.2534 -10.9782 -11.1089 -9.96378 -10.111 -11.1089 -11.2534 -10.111 -10.2605 -12.2439 -12.3524 -11.2534 -11.4156 -12.3524 -12.3875 -11.4156 -11.5039 -11.2534 -11.4156 -10.2605 -10.3966 -11.4156 -11.5039 -10.3966 -10.541 -12.3875 -12.5416 -11.5039 -11.5015 -12.5416 -12.6772 -11.5015 -11.643 -11.5039 -11.5015 -10.541 -10.7093 -11.5015 -11.643