# vtk DataFile Version 3.0
#This file was generated by the deal.II library on 2015/9/1 at 17:12:58
ASCII
DATASET UNSTRUCTURED_GRID

POINTS 11912 double
0 0 0
0.05 0 0
0 0.05 0
0.05 0.05 0
0.05 0 0
0.1 0 0
0.05 0.05 0
0.1 0.05 0
0.1 0 0
0.15 0 0
0.1 0.05 0
0.15 0.05 0
0.15 0 0
0.2 0 0
0.15 0.05 0
0.2 0.05 0
0.2 0 0
0.25 0 0
0.2 0.05 0
0.25 0.05 0
0.25 0 0
0.3 0 0
0.25 0.05 0
0.3 0.05 0
0.3 0 0
0.35 0 0
0.3 0.05 0
0.35 0.05 0
0.35 0 0
0.4 0 0
0.35 0.05 0
0.4 0.05 0
0.4 0 0
0.45 0 0
0.4 0.05 0
0.45 0.05 0
0.45 0 0
0.5 0 0
0.45 0.05 0
0.5 0.05 0
0.5 0 0
0.55 0 0
0.5 0.05 0
0.55 0.05 0
0.55 0 0
0.6 0 0
0.55 0.05 0
0.6 0.05 0
0.6 0 0
0.65 0 0
0.6 0.05 0
0.65 0.05 0
0.65 0 0
0.7 0 0
0.65 0.05 0
0.7 0.05 0
0.7 0 0
0.75 0 0
0.7 0.05 0
0.75 0.05 0
0.75 0 0
0.8 0 0
0.75 0.05 0
0.8 0.05 0
0.8 0 0
0.85 0 0
0.8 0.05 0
0.85 0.05 0
0.85 0 0
0.9 0 0
0.85 0.05 0
0.9 0.05 0
0.9 0 0
0.95 0 0
0.9 0.05 0
0.95 0.05 0
0.95 0 0
1 0 0
0.95 0.05 0
1 0.05 0
1 0 0
1.05 0 0
1 0.05 0
1.05 0.05 0
1.05 0 0
1.1 0 0
1.05 0.05 0
1.1 0.05 0
1.1 0 0
1.15 0 0
1.1 0.05 0
1.15 0.05 0
1.15 0 0
1.2 0 0
1.15 0.05 0
1.2 0.05 0
1.2 0 0
1.25 0 0
1.2 0.05 0
1.25 0.05 0
1.25 0 0
1.3 0 0
1.25 0.05 0
1.3 0.05 0
0.1 0.05 0
0.15 0.05 0
0.1 0.1 0
0.15 0.1 0
0.15 0.05 0
0.2 0.05 0
0.15 0.1 0
0.2 0.1 0
0.2 0.05 0
0.25 0.05 0
0.2 0.1 0
0.25 0.1 0
0.25 0.05 0
0.3 0.05 0
0.25 0.1 0
0.3 0.1 0
0.2 0.1 0
0.25 0.1 0
0.2 0.15 0
0.25 0.15 0
0.25 0.1 0
0.3 0.1 0
0.25 0.15 0
0.3 0.15 0
0.85 0.45 0
0.9 0.45 0
0.85 0.5 0
0.9 0.5 0
0.9 0.45 0
0.95 0.45 0
0.9 0.5 0
0.95 0.5 0
1.45 0.45 0
1.5 0.45 0
1.45 0.5 0
1.5 0.5 0
1.9 0.45 0
1.95 0.45 0
1.9 0.5 0
1.95 0.5 0
1.95 0.45 0
2 0.45 0
1.95 0.5 0
2 0.5 0
0.65 0.5 0
0.7 0.5 0
0.65 0.55 0
0.7 0.55 0
0.85 0.5 0
0.9 0.5 0
0.85 0.55 0
0.9 0.55 0
0.9 0.5 0
0.95 0.5 0
0.9 0.55 0
0.95 0.55 0
1.9 0.5 0
1.95 0.5 0
1.9 0.55 0
1.95 0.55 0
1.95 0.5 0
2 0.5 0
1.95 0.55 0
2 0.55 0
0.2 0.85 0
0.25 0.85 0
0.2 0.9 0
0.25 0.9 0
0.25 0.85 0
0.3 0.85 0
0.25 0.9 0
0.3 0.9 0
0.1 0.9 0
0.15 0.9 0
0.1 0.95 0
0.15 0.95 0
0.15 0.9 0
0.2 0.9 0
0.15 0.95 0
0.2 0.95 0
0.2 0.9 0
0.25 0.9 0
0.2 0.95 0
0.25 0.95 0
0.25 0.9 0
0.3 0.9 0
0.25 0.95 0
0.3 0.95 0
0 0.95 0
0.05 0.95 0
0 1 0
0.05 1 0
0.05 0.95 0
0.1 0.95 0
0.05 1 0
0.1 1 0
0.1 0.95 0
0.15 0.95 0
0.1 1 0
0.15 1 0
0.15 0.95 0
0.2 0.95 0
0.15 1 0
0.2 1 0
0.2 0.95 0
0.25 0.95 0
0.2 1 0
0.25 1 0
0.25 0.95 0
0.3 0.95 0
0.25 1 0
0.3 1 0
0.3 0.95 0
0.35 0.95 0
0.3 1 0
0.35 1 0
0.35 0.95 0
0.4 0.95 0
0.35 1 0
0.4 1 0
0.4 0.95 0
0.45 0.95 0
0.4 1 0
0.45 1 0
0.45 0.95 0
0.5 0.95 0
0.45 1 0
0.5 1 0
0.5 0.95 0
0.55 0.95 0
0.5 1 0
0.55 1 0
0.55 0.95 0
0.6 0.95 0
0.55 1 0
0.6 1 0
0.6 0.95 0
0.65 0.95 0
0.6 1 0
0.65 1 0
0.65 0.95 0
0.7 0.95 0
0.65 1 0
0.7 1 0
0.7 0.95 0
0.75 0.95 0
0.7 1 0
0.75 1 0
0.75 0.95 0
0.8 0.95 0
0.75 1 0
0.8 1 0
0.8 0.95 0
0.85 0.95 0
0.8 1 0
0.85 1 0
0.85 0.95 0
0.9 0.95 0
0.85 1 0
0.9 1 0
0.9 0.95 0
0.95 0.95 0
0.9 1 0
0.95 1 0
0.95 0.95 0
1 0.95 0
0.95 1 0
1 1 0
1 0.95 0
1.05 0.95 0
1 1 0
1.05 1 0
1.05 0.95 0
1.1 0.95 0
1.05 1 0
1.1 1 0
1.1 0.95 0
1.15 0.95 0
1.1 1 0
1.15 1 0
1.15 0.95 0
1.2 0.95 0
1.15 1 0
1.2 1 0
1.2 0.95 0
1.25 0.95 0
1.2 1 0
1.25 1 0
1.25 0.95 0
1.3 0.95 0
1.25 1 0
1.3 1 0
1.3 0 0
1.325 0 0
1.3 0.025 0
1.325 0.025 0
1.325 0 0
1.35 0 0
1.325 0.025 0
1.35 0.025 0
1.3 0.025 0
1.325 0.025 0
1.3 0.05 0
1.325 0.05 0
1.325 0.025 0
1.35 0.025 0
1.325 0.05 0
1.35 0.05 0
1.35 0 0
1.375 0 0
1.35 0.025 0
1.375 0.025 0
1.375 0 0
1.4 0 0
1.375 0.025 0
1.4 0.025 0
1.35 0.025 0
1.375 0.025 0
1.35 0.05 0
1.375 0.05 0
1.375 0.025 0
1.4 0.025 0
1.375 0.05 0
1.4 0.05 0
1.4 0 0
1.425 0 0
1.4 0.025 0
1.425 0.025 0
1.425 0 0
1.45 0 0
1.425 0.025 0
1.45 0.025 0
1.4 0.025 0
1.425 0.025 0
1.4 0.05 0
1.425 0.05 0
1.425 0.025 0
1.45 0.025 0
1.425 0.05 0
1.45 0.05 0
1.45 0 0
1.475 0 0
1.45 0.025 0
1.475 0.025 0
1.475 0 0
1.5 0 0
1.475 0.025 0
1.5 0.025 0
1.45 0.025 0
1.475 0.025 0
1.45 0.05 0
1.475 0.05 0
1.475 0.025 0
1.5 0.025 0
1.475 0.05 0
1.5 0.05 0
1.5 0 0
1.525 0 0
1.5 0.025 0
1.525 0.025 0
1.525 0 0
1.55 0 0
1.525 0.025 0
1.55 0.025 0
1.5 0.025 0
1.525 0.025 0
1.5 0.05 0
1.525 0.05 0
1.525 0.025 0
1.55 0.025 0
1.525 0.05 0
1.55 0.05 0
1.55 0 0
1.575 0 0
1.55 0.025 0
1.575 0.025 0
1.575 0 0
1.6 0 0
1.575 0.025 0
1.6 0.025 0
1.55 0.025 0
1.575 0.025 0
1.55 0.05 0
1.575 0.05 0
1.575 0.025 0
1.6 0.025 0
1.575 0.05 0
1.6 0.05 0
1.6 0 0
1.625 0 0
1.6 0.025 0
1.625 0.025 0
1.625 0 0
1.65 0 0
1.625 0.025 0
1.65 0.025 0
1.6 0.025 0
1.625 0.025 0
1.6 0.05 0
1.625 0.05 0
1.625 0.025 0
1.65 0.025 0
1.625 0.05 0
1.65 0.05 0
1.65 0 0
1.675 0 0
1.65 0.025 0
1.675 0.025 0
1.675 0 0
1.7 0 0
1.675 0.025 0
1.7 0.025 0
1.65 0.025 0
1.675 0.025 0
1.65 0.05 0
1.675 0.05 0
1.675 0.025 0
1.7 0.025 0
1.675 0.05 0
1.7 0.05 0
1.7 0 0
1.725 0 0
1.7 0.025 0
1.725 0.025 0
1.725 0 0
1.75 0 0
1.725 0.025 0
1.75 0.025 0
1.7 0.025 0
1.725 0.025 0
1.7 0.05 0
1.725 0.05 0
1.725 0.025 0
1.75 0.025 0
1.725 0.05 0
1.75 0.05 0
1.75 0 0
1.775 0 0
1.75 0.025 0
1.775 0.025 0
1.775 0 0
1.8 0 0
1.775 0.025 0
1.8 0.025 0
1.75 0.025 0
1.775 0.025 0
1.75 0.05 0
1.775 0.05 0
1.775 0.025 0
1.8 0.025 0
1.775 0.05 0
1.8 0.05 0
1.8 0 0
1.825 0 0
1.8 0.025 0
1.825 0.025 0
1.825 0 0
1.85 0 0
1.825 0.025 0
1.85 0.025 0
1.8 0.025 0
1.825 0.025 0
1.8 0.05 0
1.825 0.05 0
1.825 0.025 0
1.85 0.025 0
1.825 0.05 0
1.85 0.05 0
1.85 0 0
1.875 0 0
1.85 0.025 0
1.875 0.025 0
1.875 0 0
1.9 0 0
1.875 0.025 0
1.9 0.025 0
1.85 0.025 0
1.875 0.025 0
1.85 0.05 0
1.875 0.05 0
1.875 0.025 0
1.9 0.025 0
1.875 0.05 0
1.9 0.05 0
1.9 0 0
1.925 0 0
1.9 0.025 0
1.925 0.025 0
1.925 0 0
1.95 0 0
1.925 0.025 0
1.95 0.025 0
1.9 0.025 0
1.925 0.025 0
1.9 0.05 0
1.925 0.05 0
1.925 0.025 0
1.95 0.025 0
1.925 0.05 0
1.95 0.05 0
1.95 0 0
1.975 0 0
1.95 0.025 0
1.975 0.025 0
1.975 0 0
2 0 0
1.975 0.025 0
2 0.025 0
1.95 0.025 0
1.975 0.025 0
1.95 0.05 0
1.975 0.05 0
1.975 0.025 0
2 0.025 0
1.975 0.05 0
2 0.05 0
0 0.05 0
0.025 0.05 0
0 0.075 0
0.025 0.075 0
0.025 0.05 0
0.05 0.05 0
0.025 0.075 0
0.05 0.075 0
0 0.075 0
0.025 0.075 0
0 0.1 0
0.025 0.1 0
0.025 0.075 0
0.05 0.075 0
0.025 0.1 0
0.05 0.1 0
0.05 0.05 0
0.075 0.05 0
0.05 0.075 0
0.075 0.075 0
0.075 0.05 0
0.1 0.05 0
0.075 0.075 0
0.1 0.075 0
0.05 0.075 0
0.075 0.075 0
0.05 0.1 0
0.075 0.1 0
0.075 0.075 0
0.1 0.075 0
0.075 0.1 0
0.1 0.1 0
0.3 0.05 0
0.325 0.05 0
0.3 0.075 0
0.325 0.075 0
0.325 0.05 0
0.35 0.05 0
0.325 0.075 0
0.35 0.075 0
0.3 0.075 0
0.325 0.075 0
0.3 0.1 0
0.325 0.1 0
0.325 0.075 0
0.35 0.075 0
0.325 0.1 0
0.35 0.1 0
0.35 0.05 0
0.375 0.05 0
0.35 0.075 0
0.375 0.075 0
0.375 0.05 0
0.4 0.05 0
0.375 0.075 0
0.4 0.075 0
0.35 0.075 0
0.375 0.075 0
0.35 0.1 0
0.375 0.1 0
0.375 0.075 0
0.4 0.075 0
0.375 0.1 0
0.4 0.1 0
0.4 0.05 0
0.425 0.05 0
0.4 0.075 0
0.425 0.075 0
0.425 0.05 0
0.45 0.05 0
0.425 0.075 0
0.45 0.075 0
0.4 0.075 0
0.425 0.075 0
0.4 0.1 0
0.425 0.1 0
0.425 0.075 0
0.45 0.075 0
0.425 0.1 0
0.45 0.1 0
0.45 0.05 0
0.475 0.05 0
0.45 0.075 0
0.475 0.075 0
0.475 0.05 0
0.5 0.05 0
0.475 0.075 0
0.5 0.075 0
0.45 0.075 0
0.475 0.075 0
0.45 0.1 0
0.475 0.1 0
0.475 0.075 0
0.5 0.075 0
0.475 0.1 0
0.5 0.1 0
0.5 0.05 0
0.525 0.05 0
0.5 0.075 0
0.525 0.075 0
0.525 0.05 0
0.55 0.05 0
0.525 0.075 0
0.55 0.075 0
0.5 0.075 0
0.525 0.075 0
0.5 0.1 0
0.525 0.1 0
0.525 0.075 0
0.55 0.075 0
0.525 0.1 0
0.55 0.1 0
0.55 0.05 0
0.575 0.05 0
0.55 0.075 0
0.575 0.075 0
0.575 0.05 0
0.6 0.05 0
0.575 0.075 0
0.6 0.075 0
0.55 0.075 0
0.575 0.075 0
0.55 0.1 0
0.575 0.1 0
0.575 0.075 0
0.6 0.075 0
0.575 0.1 0
0.6 0.1 0
0.6 0.05 0
0.625 0.05 0
0.6 0.075 0
0.625 0.075 0
0.625 0.05 0
0.65 0.05 0
0.625 0.075 0
0.65 0.075 0
0.6 0.075 0
0.625 0.075 0
0.6 0.1 0
0.625 0.1 0
0.625 0.075 0
0.65 0.075 0
0.625 0.1 0
0.65 0.1 0
0.65 0.05 0
0.675 0.05 0
0.65 0.075 0
0.675 0.075 0
0.675 0.05 0
0.7 0.05 0
0.675 0.075 0
0.7 0.075 0
0.65 0.075 0
0.675 0.075 0
0.65 0.1 0
0.675 0.1 0
0.675 0.075 0
0.7 0.075 0
0.675 0.1 0
0.7 0.1 0
0.7 0.05 0
0.725 0.05 0
0.7 0.075 0
0.725 0.075 0
0.725 0.05 0
0.75 0.05 0
0.725 0.075 0
0.75 0.075 0
0.7 0.075 0
0.725 0.075 0
0.7 0.1 0
0.725 0.1 0
0.725 0.075 0
0.75 0.075 0
0.725 0.1 0
0.75 0.1 0
0.75 0.05 0
0.775 0.05 0
0.75 0.075 0
0.775 0.075 0
0.775 0.05 0
0.8 0.05 0
0.775 0.075 0
0.8 0.075 0
0.75 0.075 0
0.775 0.075 0
0.75 0.1 0
0.775 0.1 0
0.775 0.075 0
0.8 0.075 0
0.775 0.1 0
0.8 0.1 0
0.8 0.05 0
0.825 0.05 0
0.8 0.075 0
0.825 0.075 0
0.825 0.05 0
0.85 0.05 0
0.825 0.075 0
0.85 0.075 0
0.8 0.075 0
0.825 0.075 0
0.8 0.1 0
0.825 0.1 0
0.825 0.075 0
0.85 0.075 0
0.825 0.1 0
0.85 0.1 0
0.85 0.05 0
0.875 0.05 0
0.85 0.075 0
0.875 0.075 0
0.875 0.05 0
0.9 0.05 0
0.875 0.075 0
0.9 0.075 0
0.85 0.075 0
0.875 0.075 0
0.85 0.1 0
0.875 0.1 0
0.875 0.075 0
0.9 0.075 0
0.875 0.1 0
0.9 0.1 0
0.9 0.05 0
0.925 0.05 0
0.9 0.075 0
0.925 0.075 0
0.925 0.05 0
0.95 0.05 0
0.925 0.075 0
0.95 0.075 0
0.9 0.075 0
0.925 0.075 0
0.9 0.1 0
0.925 0.1 0
0.925 0.075 0
0.95 0.075 0
0.925 0.1 0
0.95 0.1 0
0.95 0.05 0
0.975 0.05 0
0.95 0.075 0
0.975 0.075 0
0.975 0.05 0
1 0.05 0
0.975 0.075 0
1 0.075 0
0.95 0.075 0
0.975 0.075 0
0.95 0.1 0
0.975 0.1 0
0.975 0.075 0
1 0.075 0
0.975 0.1 0
1 0.1 0
1 0.05 0
1.025 0.05 0
1 0.075 0
1.025 0.075 0
1.025 0.05 0
1.05 0.05 0
1.025 0.075 0
1.05 0.075 0
1 0.075 0
1.025 0.075 0
1 0.1 0
1.025 0.1 0
1.025 0.075 0
1.05 0.075 0
1.025 0.1 0
1.05 0.1 0
1.05 0.05 0
1.075 0.05 0
1.05 0.075 0
1.075 0.075 0
1.075 0.05 0
1.1 0.05 0
1.075 0.075 0
1.1 0.075 0
1.05 0.075 0
1.075 0.075 0
1.05 0.1 0
1.075 0.1 0
1.075 0.075 0
1.1 0.075 0
1.075 0.1 0
1.1 0.1 0
1.1 0.05 0
1.125 0.05 0
1.1 0.075 0
1.125 0.075 0
1.125 0.05 0
1.15 0.05 0
1.125 0.075 0
1.15 0.075 0
1.1 0.075 0
1.125 0.075 0
1.1 0.1 0
1.125 0.1 0
1.125 0.075 0
1.15 0.075 0
1.125 0.1 0
1.15 0.1 0
1.15 0.05 0
1.175 0.05 0
1.15 0.075 0
1.175 0.075 0
1.175 0.05 0
1.2 0.05 0
1.175 0.075 0
1.2 0.075 0
1.15 0.075 0
1.175 0.075 0
1.15 0.1 0
1.175 0.1 0
1.175 0.075 0
1.2 0.075 0
1.175 0.1 0
1.2 0.1 0
1.2 0.05 0
1.225 0.05 0
1.2 0.075 0
1.225 0.075 0
1.225 0.05 0
1.25 0.05 0
1.225 0.075 0
1.25 0.075 0
1.2 0.075 0
1.225 0.075 0
1.2 0.1 0
1.225 0.1 0
1.225 0.075 0
[...]
POINT_DATA 11912
SCALARS x_displacement double 1
LOOKUP_TABLE default
0 -1.52018 0 -0.866841 -1.52018 -2.6537 -0.866841 -1.77203 -2.6537 -3.57636 -1.77203 -2.56017 -3.57636 -4.35848 -2.56017 -3.25724 -4.35848 -5.05334 -3.25724 -3.87875 -5.05334 -5.71579 -3.87875 -4.44678 -5.71579 -6.38733 -4.44678 -5.00453 -6.38733 -7.08211 -5.00453 -5.57572 -7.08211 -7.77923 -5.57572 -6.1766 -7.77923 -8.45131 -6.1766 -6.80145 -8.45131 -9.08389 -6.80145 -7.44023 -9.08389 -9.68097 -7.44023 -8.08775 -9.68097 -10.2527 -8.08775 -8.73773 -10.2527 -10.8089 -8.73773 -9.38241 -10.8089 -11.3615 -9.38241 -10.0135 -11.3615 -11.9246 -10.0135 -10.6231 -11.9246 -12.5074 -10.6231 -11.2068 -12.5074 -13.1097 -11.2068 -11.7652 -13.1097 -13.724 -11.7652 -12.3031 -13.724 -14.3407 -12.3031 -12.8264 -14.3407 -14.9565 -12.8264 -13.3371 -14.9565 -15.5807 -13.3371 -13.8352 -15.5807 -16.2215 -13.8352 -14.3205 -16.2215 -16.8573 -14.3205 -14.7827 -16.8573 -17.4166 -14.7827 -15.204 -17.4166 -17.8118 -15.204 -15.5713 -1.77203 -2.56017 -1.16132 -1.76444 -2.56017 -3.25724 -1.76444 -2.3224 -3.25724 -3.87875 -2.3224 -2.82501 -3.87875 -4.44678 -2.82501 -3.25526 -2.3224 -2.82501 -1.50278 -1.91348 -2.82501 -3.25526 -1.91348 -2.27092 -1.00185 -1.11348 -0.0123885 -0.0123304 -1.11348 -1.16714 -0.0123304 -0.0125823 -1.28971 -1.2821 -0.00130739 0.00016852 -2.0874 -2.34014 0.00335927 0.00323244 -2.34014 -2.39933 0.00323244 0.00316323 -0.171192 -0.104276 0.328488 0.463537 -0.0123885 -0.0123304 0.9764 1.08844 -0.0123304 -0.0125823 1.08844 1.14191 0.00335927 0.00323244 2.0938 2.34642 0.00323244 0.00316323 2.34642 2.40553 1.48427 1.89482 2.31377 2.81577 1.89482 2.25176 2.81577 3.24518 1.15435 1.75641 1.77388 2.56213 1.75641 2.31377 2.56213 3.25882 2.31377 2.81577 3.25882 3.87949 2.81577 3.24518 3.87949 4.44639 0 0.867852 0 1.52821 0.867852 1.77388 1.52821 2.66589 1.77388 2.56213 2.66589 3.58984 2.56213 3.25882 3.58984 4.37152 3.25882 3.87949 4.37152 5.06495 3.87949 4.44639 5.06495 5.72541 4.44639 5.00296 5.72541 6.39451 5.00296 5.57308 6.39451 7.08638 5.57308 6.17301 7.08638 7.78001 6.17301 6.79703 7.78001 8.44817 6.79703 7.43522 8.44817 9.07696 7.43522 8.08225 9.07696 9.67103 8.08225 8.73167 9.67103 10.2408 8.73167 9.37576 10.2408 10.7959 9.37576 10.0065 10.7959 11.3481 10.0065 10.6161 11.3481 11.911 10.6161 11.2003 11.911 12.4934 11.2003 11.7597 12.4934 13.0952 11.7597 12.2988 13.0952 13.7096 12.2988 12.8229 13.7096 14.3276 12.8229 13.3342 14.3276 14.9462 13.3342 13.8327 14.9462 15.5739 13.8327 14.3185 15.5739 16.2179 14.3185 14.7808 16.2179 16.8556 14.7808 15.202 16.8556 17.4153 15.202 15.5692 17.4153 17.8103 -17.8118 -17.9575 -16.6916 -16.8187 -17.9575 -18.0621 -16.8187 -16.96 -16.6916 -16.8187 -15.5713 -15.7408 -16.8187 -16.96 -15.7408 -15.8896 -18.0621 -18.1796 -16.96 -17.103 -18.1796 -18.2477 -17.103 -17.2281 -16.96 -17.103 -15.8896 -16.0164 -17.103 -17.2281 -16.0164 -16.1247 -18.2477 -18.2603 -17.2281 -17.3177 -18.2603 -18.6541 -17.3177 -17.4144 -17.2281 -17.3177 -16.1247 -16.2376 -17.3177 -17.4144 -16.2376 -16.3448 -18.6541 -18.9278 -17.4144 -17.5228 -18.9278 -19.1464 -17.5228 -17.7278 -17.4144 -17.5228 -16.3448 -16.4074 -17.5228 -17.7278 -16.4074 -16.4984 -19.1464 -19.3258 -17.7278 -17.9759 -19.3258 -19.5117 -17.9759 -18.1774 -17.7278 -17.9759 -16.4984 -16.6773 -17.9759 -18.1774 -16.6773 -16.8862 -19.5117 -19.6767 -18.1774 -18.3506 -19.6767 -19.8228 -18.3506 -18.5093 -18.1774 -18.3506 -16.8862 -17.0705 -18.3506 -18.5093 -17.0705 -17.2407 -19.8228 -19.9517 -18.5093 -18.6487 -19.9517 -20.0611 -18.6487 -18.7691 -18.5093 -18.6487 -17.2407 -17.3853 -18.6487 -18.7691 -17.3853 -17.5158 -20.0611 -20.1514 -18.7691 -18.8728 -20.1514 -20.2239 -18.8728 -18.9603 -18.7691 -18.8728 -17.5158 -17.6317 -18.8728 -18.9603 -17.6317 -17.7322 -20.2239 -20.28 -18.9603 -19.0324 -20.28 -20.3209 -19.0324 -19.0902 -18.9603 -19.0324 -17.7322 -17.8179 -19.0324 -19.0902 -17.8179 -17.8898 -20.3209 -20.3482 -19.0902 -19.1347 -20.3482 -20.3632 -19.1347 -19.1672 -19.0902 -19.1347 -17.8898 -17.9488 -19.1347 -19.1672 -17.9488 -17.9954 -20.3632 -20.3679 -19.1672 -19.1892 -20.3679 -20.3642 -19.1892 -19.2024 -19.1672 -19.1892 -17.9954 -18.0308 -19.1892 -19.2024 -18.0308 -18.0563 -20.3642 -20.3548 -19.2024 -19.2085 -20.3548 -20.3425 -19.2085 -19.2099 -19.2024 -19.2085 -18.0563 -18.0733 -19.2085 -19.2099 -18.0733 -18.0835 -20.3425 -20.3304 -19.2099 -19.2085 -20.3304 -20.3214 -19.2085 -19.2064 -19.2099 -19.2085 -18.0835 -18.0887 -19.2085 -19.2064 -18.0887 -18.0908 -20.3214 -20.317 -19.2064 -19.2049 -20.317 -20.3161 -19.2049 -19.2049 -19.2064 -19.2049 -18.0908 -18.0917 -19.2049 -19.2049 -18.0917 -18.0932 0 -0.433421 0 -0.350936 -0.433421 -0.866841 -0.350936 -0.71692 0 -0.350936 0 -0.259259 -0.350936 -0.71692 -0.259259 -0.56614 -0.866841 -1.31943 -0.71692 -1.08499 -1.31943 -1.77203 -1.08499 -1.46668 -0.71692 -1.08499 -0.56614 -0.869105 -1.08499 -1.46668 -0.869105 -1.16132 -4.44678 -4.72565 -3.85102 -4.07366 -4.72565 -5.00453 -4.07366 -4.30128 -3.85102 -4.07366 -3.25526 -3.44684 -4.07366 -4.30128 -3.44684 -3.61249 -5.00453 -5.29013 -4.30128 -4.54412 -5.29013 -5.57572 -4.54412 -4.80399 -4.30128 -4.54412 -3.61249 -3.78742 -4.54412 -4.80399 -3.78742 -3.99843 -5.57572 -5.87616 -4.80399 -5.07672 -5.87616 -6.1766 -5.07672 -5.36033 -4.80399 -5.07672 -3.99843 -4.25305 -5.07672 -5.36033 -4.25305 -4.51168 -6.1766 -6.48903 -5.36033 -5.65858 -6.48903 -6.80145 -5.65858 -5.971 -5.36033 -5.65858 -4.51168 -4.79642 -5.65858 -5.971 -4.79642 -5.10901 -6.80145 -7.12084 -5.971 -6.28985 -7.12084 -7.44023 -6.28985 -6.61829 -5.971 -6.28985 -5.10901 -5.44125 -6.28985 -6.61829 -5.44125 -5.78352 -7.44023 -7.76399 -6.61829 -6.95304 -7.76399 -8.08775 -6.95304 -7.29433 -6.61829 -6.95304 -5.78352 -6.13827 -6.95304 -7.29433 -6.13827 -6.49972 -8.08775 -8.41274 -7.29433 -7.63856 -8.41274 -8.73773 -7.63856 -7.98536 -7.29433 -7.63856 -6.49972 -6.8665 -7.63856 -7.98536 -6.8665 -7.2384 -8.73773 -9.06007 -7.98536 -8.3324 -9.06007 -9.38241 -8.3324 -8.67779 -7.98536 -8.3324 -7.2384 -7.61374 -8.3324 -8.67779 -7.61374 -7.98958 -9.38241 -9.69798 -8.67779 -9.01901 -9.69798 -10.0135 -9.01901 -9.35263 -8.67779 -9.01901 -7.98958 -8.35954 -9.01901 -9.35263 -8.35954 -8.7198 -10.0135 -10.3183 -9.35263 -9.6766 -10.3183 -10.6231 -9.6766 -9.98796 -9.35263 -9.6766 -8.7198 -9.06141 -9.6766 -9.98796 -9.06141 -9.38381 -10.6231 -10.915 -9.98796 -10.2863 -10.915 -11.2068 -10.2863 -10.5711 -9.98796 -10.2863 -9.38381 -9.68175 -10.2863 -10.5711 -9.68175 -9.95942 -11.2068 -11.486 -10.5711 -10.8432 -11.486 -11.7652 -10.8432 -11.1047 -10.5711 -10.8432 -9.95942 -10.2165 -10.8432 -11.1047 -10.2165 -10.4586 -11.7652 -12.0342 -11.1047 -11.3563 -12.0342 -12.3031 -11.3563 -11.6012 -11.1047 -11.3563 -10.4586 -10.6868 -11.3563 -11.6012 -10.6868 -10.9061 -12.3031 -12.5648 -11.6012 -11.8396 -12.5648 -12.8264 -11.8396 -12.0745 -11.6012 -11.8396 -10.9061 -11.1171 -11.8396 -12.0745 -11.1171 -11.3255 -12.8264 -13.0818 -12.0745 -12.3059 -13.0818 -13.3371 -12.3059 -12.5328 -12.0745 -12.3059 -11.3255 -11.5328 -12.3059 -12.5328 -11.5328 -11.7369 -13.3371 -13.5862 -12.5328 -12.7557 -13.5862 -13.8352 -12.7557 -12.9725 -12.5328 -12.7557 -11.7369 -11.9381 -12.7557 -12.9725 -11.9381 -12.1343 -13.8352 -14.0779 -12.9725 -13.1866 -14.0779 -14.3205 -13.1866 -13.3938 -12.9725 -13.1866 -12.1343 -12.3223 -13.1866 -13.3938 -12.3223 -12.5016 -14.3205 -14.5516 -13.3938 -13.597 -14.5516 -14.7827 -13.597 -13.7904 -13.3938 -13.597 -12.5016 -12.6692 -13.597 -13.7904 -12.6692 -12.8281 -14.7827 -14.9933 -13.7904 -13.9793 -14.9933 -15.204 -13.9793 -14.1608 -13.7904 -13.9793 -12.8281 -12.9798 -13.9793 -14.1608 -12.9798 -13.1298 -15.204 -15.3877 -14.1608 -14.3363 -15.3877 -15.5713 -14.3363 -14.501 -14.1608 -14.3363 -13.1298 -13.2786 -14.3363 -14.501 -13.2786 -13.4218 -15.5713 -15.7408 -14.501 -14.6491 -15.7408 -15.8896 -14.6491 -14.7836 -14.501 -14.6491 -13.4218 -13.5538 -14.6491 -14.7836 -13.5538 -13.6775 -15.8896 -16.0164 -14.7836 -14.9081 -16.0164 -16.1247 -14.9081 -15.0244 -14.7836 -14.9081 -13.6775 -13.7977 -14.9081 -15.0244 -13.7977 -13.9161 -16.1247 -16.2376 -15.0244 -15.1336 -16.2376 -16.3448 -15.1336 -15.2483 -15.0244 -15.1336 -13.9161 -14.0351 -15.1336 -15.2483 -14.0351 -14.1657 -16.3448 -16.4074 -15.2483 -15.4055 -16.4074 -16.4984 -15.4055 -15.5228 -15.2483 -15.4055 -14.1657 -14.2958 -15.4055 -15.5228 -14.2958 -14.4229 -16.4984 -16.6773 -15.5228 -15.5426 -16.6773 -16.8862 -15.5426 -15.6875 -15.5228 -15.5426 -14.4229 -14.5414 -15.5426 -15.6875 -14.5414 -14.6249 -16.8862 -17.0705 -15.6875 -15.8415 -17.0705 -17.2407 -15.8415 -16.0055 -15.6875 -15.8415 -14.6249 -14.6257 -15.8415 -16.0055 -14.6257 -14.7975 -17.2407 -17.3853 -16.0055 -16.1553 -17.3853 -17.5158 -16.1553 -16.2985 -16.0055 -16.1553 -14.7975 -14.9643 -16.1553 -16.2985 -14.9643 -15.1134 -17.5158 -17.6317 -16.2985 -16.4253 -17.6317 -17.7322 -16.4253 -16.5369 -16.2985 -16.4253 -15.1134 -15.2481 -16.4253 -16.5369 -15.2481 -15.3739 -17.7322 -17.8179 -16.5369 -16.6351 -17.8179 -17.8898 -16.6351 -16.7194 -16.5369 -16.6351 -15.3739 -15.4831 -16.6351 -16.7194 -15.4831 -15.5793 -17.8898 -17.9488 -16.7194 -16.7905 -17.9488 -17.9954 -16.7905 -16.8486 -16.7194 -16.7905 -15.5793 -15.6609 -16.7905 -16.8486 -15.6609 -15.728 -17.9954 -18.0308 -16.8486 -16.8943 -18.0308 -18.0563 -16.8943 -16.9288 -16.8486 -16.8943 -15.728 -15.7812 -16.8943 -16.9288 -15.7812 -15.8224 -18.0563 -18.0733 -16.9288 -16.9533 -18.0733 -18.0835 -16.9533 -16.9693 -16.9288 -16.9533 -15.8224 -15.8524 -16.9533 -16.9693 -15.8524 -15.8722 -18.0835 -18.0887 -16.9693 -16.9783 -18.0887 -18.0908 -16.9783 -16.9826 -16.9693 -16.9783 -15.8722 -15.8833 -16.9783 -16.9826 -15.8833 -15.8882 -18.0908 -18.0917 -16.9826 -16.9847 -18.0917 -18.0932 -16.9847 -16.9871 -16.9826 -16.9847 -15.8882 -15.8901 -16.9847 -16.9871 -15.8901 -15.8929 0 -0.259259 0 -0.174511 -0.259259 -0.56614 -0.174511 -0.424486 0 -0.174511 0 -0.0692827 -0.174511 -0.424486 -0.0692827 -0.224175 -0.56614 -0.869105 -0.424486 -0.652336 -0.869105 -1.16132 -0.652336 -0.898065 -0.424486 -0.652336 -0.224175 -0.421833 -0.652336 -0.898065 -0.421833 -0.64473 -1.16132 -1.46288 -0.898065 -1.15693 -1.46288 -1.76444 -1.15693 -1.41085 -0.898065 -1.15693 -0.64473 -0.848662 -1.15693 -1.41085 -0.848662 -1.06015 -1.76444 -2.04342 -1.41085 -1.66275 -2.04342 -2.3224 -1.66275 -1.91259 -1.41085 -1.66275 -1.06015 -1.28725 -1.66275 -1.91259 -1.28725 -1.50278 -3.25526 -3.44684 -2.76309 -2.90593 -3.44684 -3.61249 -2.90593 -3.04014 -2.76309 -2.90593 -2.27092 -2.4362 -2.90593 -3.04014 -2.4362 -2.58117 -3.61249 -3.78742 -3.04014 -3.1573 -3.78742 -3.99843 -3.1573 -3.27697 -3.04014 -3.1573 -2.58117 -2.71235 -3.1573 -3.27697 -2.71235 -2.84458 -3.99843 -4.25305 -3.27697 -3.44981 -4.25305 -4.51168 -3.44981 -3.67448 -3.27697 -3.44981 -2.84458 -2.9854 -3.44981 -3.67448 -2.9854 -3.11601 -4.51168 -4.79642 -3.67448 -3.90215 -4.79642 -5.10901 -3.90215 -4.14662 -3.67448 -3.90215 -3.11601 -3.24429 -3.90215 -4.14662 -3.24429 -3.37317 -5.10901 -5.44125 -4.14662 -4.47976 -5.44125 -5.78352 -4.47976 -4.92592 -4.14662 -4.47976 -3.37317 -3.5147 -4.47976 -4.92592 -3.5147 -3.6975 -5.78352 -6.13827 -4.92592 -5.31939 -6.13827 -6.49972 -5.31939 -5.70856 -4.92592 -5.31939 -3.6975 -4.03383 -5.31939 -5.70856 -4.03383 -5.0824 -6.49972 -6.8665 -5.70856 -6.10288 -6.8665 -7.2384 -6.10288 -6.50068 -5.70856 -6.10288 -5.0824 -5.58375 -6.10288 -6.50068 -5.58375 -6.03122 -7.2384 -7.61374 -6.50068 -6.91536 -7.61374 -7.98958 -6.91536 -7.31956 -6.50068 -6.91536 -6.03122 -6.46094 -6.91536 -7.31956 -6.46094 -6.88341 -7.98958 -8.35954 -7.31956 -7.73169 -8.35954 -8.7198 -7.73169 -8.10834 -7.31956 -7.73169 -6.88341 -7.24596 -7.73169 -8.10834 -7.24596 -7.62818 -8.7198 -9.06141 -8.10834 -8.47377 -9.06141 -9.38381 -8.47377 -8.79067 -8.10834 -8.47377 -7.62818 -7.92321 -8.47377 -8.79067 -7.92321 -8.24633 -9.38381 -9.68175 -8.79067 -9.08923 -9.68175 -9.95942 -9.08923 -9.34674 -8.79067 -9.08923 -8.24633 -8.48687 -9.08923 -9.34674 -8.48687 -8.74856 -9.95942 -10.2165 -9.34674 -9.59055 -10.2165 -10.4586 -9.59055 -9.80643 -9.34674 -9.59055 -8.74856 -8.9459 -9.59055 -9.80643 -8.9459 -9.15917 -10.4586 -10.6868 -9.80643 -10.0142 -10.6868 -10.9061 -10.0142 -10.2052 -9.80643 -10.0142 -9.15917 -9.32647 -10.0142 -10.2052 -9.32647 -9.5072 -10.9061 -11.1171 -10.2052 -10.3922 -11.1171 -11.3255 -10.3922 -10.5751 -10.2052 -10.3922 -9.5072 -9.661 -10.3922 -10.5751 -9.661 -9.82905 -11.3255 -11.5328 -10.5751 -10.7631 -11.5328 -11.7369 -10.7631 -10.953 -10.5751 -10.7631 -9.82905 -10.0004 -10.7631 -10.953 -10.0004 -10.205 -11.7369 -11.9381 -10.953 -11.1493 -11.9381 -12.1343 -11.1493 -11.3427 -10.953 -11.1493 -10.205 -10.4673 -11.1493 -11.3427 -10.4673 -10.654 -12.1343 -12.3223 -11.3427 -11.5136 -12.3223 -12.5016 -11.5136 -11.6575 -11.3427 -11.5136 -10.654 -10.7697 -11.5136 -11.6575 -10.7697 -10.8532 -12.5016 -12.6692 -11.6575 -11.7801 -12.6692 -12.8281 -11.7801 -11.8902 -11.6575 -11.7801 -10.8532 -10.9184 -11.7801 -11.8902 -10.9184 -10.9698 -12.8281 -12.9798 -11.8902 -11.9911 -12.9798 -13.1298 -11.9911 -12.09 -11.8902 -11.9911 -10.9698 -11.0107 -11.9911 -12.09 -11.0107 -11.0467 -13.1298 -13.2786 -12.09 -12.1962 -13.2786 -13.4218 -12.1962 -12.3105 -12.09 -12.1962 -11.0467 -11.0862 -12.1962 -12.3105 -11.0862 -11.1516 -13.4218 -13.5538 -12.3105 -12.4321 -13.5538 -13.6775 -12.4321 -12.553 -12.3105 -12.4321 -11.1516 -11.2652 -12.4321 -12.553 -11.2652 -11.4013 -13.6775 -13.7977 -12.553 -12.6754 -13.7977 -13.9161 -12.6754 -12.8009 -12.553 -12.6754 -11.4013 -11.5375 -12.6754 -12.8009 -11.5375 -11.6724 -13.9161 -14.0351 -12.8009 -12.9274 -14.0351 -14.1657 -12.9274 -13.0571 -12.8009 -12.9274 -11.6724 -11.8063 -12.9274 -13.0571 -11.8063 -11.9394 -14.1657 -14.2958 -13.0571 -13.1853 -14.2958 -14.4229 -13.1853 -13.3066 -13.0571 -13.1853 -11.9394 -12.0709 -13.1853 -13.3066 -12.0709 -12.2032 -14.4229 -14.5414 -13.3066 -13.4311 -14.5414 -14.6249 -13.4311 -13.5605 -13.3066 -13.4311 -12.2032 -12.3343 -13.4311 -13.5605 -12.3343 -12.4531 -14.6249 -14.6257 -13.5605 -13.6486 -14.6257 -14.7975 -13.6486 -13.7151 -13.5605 -13.6486 -12.4531 -12.5782 -13.6486 -13.7151 -12.5782 -12.7061 -14.7975 -14.9643 -13.7151 -13.777 -14.9643 -15.1134 -13.777 -13.939 -13.7151 -13.777 -12.7061 -12.7946 -13.777 -13.939 -12.7946 -12.8417 -15.1134 -15.2481 -13.939 -14.1048 -15.2481 -15.3739 -14.1048 -14.2405 -13.939 -14.1048 -12.8417 -12.9648 -14.1048 -14.2405 -12.9648 -13.1442 -15.3739 -15.4831 -14.2405 -14.3638 -15.4831 -15.5793 -14.3638 -14.4715 -14.2405 -14.3638 -13.1442 -13.281 -14.3638 -14.4715 -13.281 -13.4115 -15.5793 -15.6609 -14.4715 -14.5627 -15.6609 -15.728 -14.5627 -14.6339 -14.4715 -14.5627 -13.4115 -13.4923 -14.5627 -14.6339 -13.4923 -13.5637 -15.728 -15.7812 -14.6339 -14.6924 -15.7812 -15.8224 -14.6924 -14.7393 -14.6339 -14.6924 -13.5637 -13.6284 -14.6924 -14.7393 -13.6284 -13.6813 -15.8224 -15.8524 -14.7393 -14.7739 -15.8524 -15.8722 -14.7739 -14.7964 -14.7393 -14.7739 -13.6813 -13.7205 -14.7739 -14.7964 -13.7205 -13.7454 -15.8722 -15.8833 -14.7964 -14.8084 -15.8833 -15.8882 -14.8084 -14.8128 -14.7964 -14.8084 -13.7454 -13.7577 -14.8084 -14.8128 -13.7577 -13.7609 -15.8882 -15.8901 -14.8128 -14.8137 -15.8901 -15.8929 -14.8137 -14.8157 -14.8128 -14.8137 -13.7609 -13.7598 -14.8137 -14.8157 -13.7598 -13.7602 0 -0.0692827 0 -0.0639252 -0.0692827 -0.224175 -0.0639252 -0.0161841 0 -0.0639252 0 -0.0475016 -0.0639252 -0.0161841 -0.0475016 -0.115446 -0.224175 -0.421833 -0.0161841 -0.181355 -0.421833 -0.64473 -0.181355 -0.355983 -0.0161841 -0.181355 -0.115446 -0.231693 -0.181355 -0.355983 -0.231693 -0.0834391 -0.64473 -0.848662 -0.355983 -0.521625 -0.848662 -1.06015 -0.521625 -0.720239 -0.355983 -0.521625 -0.0834391 -0.171049 -0.521625 -0.720239 -0.171049 -0.367529 -1.06015 -1.28725 -0.720239 -0.92447 -1.28725 -1.50278 -0.92447 -1.12178 -0.720239 -0.92447 -0.367529 -0.566669 -0.92447 -1.12178 -0.566669 -0.761693 -1.50278 -1.70813 -1.12178 -1.31633 -1.70813 -1.91348 -1.31633 -1.49934 -1.12178 -1.31633 -0.761693 -0.934237 -1.31633 -1.49934 -0.934237 -1.10723 -1.91348 -2.0922 -1.49934 -1.67674 -2.0922 -2.27092 -1.67674 -1.84503 -1.49934 -1.67674 -1.10723 -1.27696 -1.67674 -1.84503 -1.27696 -1.44031 -2.27092 -2.4362 -1.84503 -2.00568 -2.4362 -2.58117 -2.00568 -2.16043 -1.84503 -2.00568 -1.44031 -1.60143 -2.00568 -2.16043 -1.60143 -1.7623 -2.58117 -2.71235 -2.16043 -2.31002 -2.71235 -2.84458 -2.31002 -2.45874 -2.16043 -2.31002 -1.7623 -1.92115 -2.31002 -2.45874 -1.92115 -2.07682 -2.84458 -2.9854 -2.45874 -2.60019 -2.9854 -3.11601 -2.60019 -2.73358 -2.45874 -2.60019 -2.07682 -2.2313 -2.60019 -2.73358 -2.2313 -2.38957 -3.11601 -3.24429 -2.73358 -2.87048 -3.24429 -3.37317 -2.87048 -3.01062 -2.73358 -2.87048 -2.38957 -2.5445 -2.87048 -3.01062 -2.5445 -2.69779 -3.37317 -3.5147 -3.01062 -3.17876 -3.5147 -3.6975 -3.17876 -3.34813 -3.01062 -3.17876 -2.69779 -2.8661 -3.17876 -3.34813 -2.8661 -3.03128 -3.6975 -4.03383 -3.34813 -3.36219 -4.03383 -5.0824 -3.36219 -3.51928 -3.34813 -3.36219 -3.03128 -3.18439 -3.36219 -3.51928 -3.18439 -3.29426 -5.0824 -5.58375 -3.51928 -3.92256 -5.58375 -6.03122 -3.92256 -4.71585 -3.51928 -3.92256 -3.29426 -3.18403 -3.92256 -4.71585 -3.18403 -3.3358 -6.03122 -6.46094 -4.71585 -5.24742 -6.46094 -6.88341 -5.24742 -5.71295 -4.71585 -5.24742 -3.3358 -4.03435 -5.24742 -5.71295 -4.03435 -4.56597 -6.88341 -7.24596 -5.71295 -6.18578 -7.24596 -7.62818 -6.18578 -6.65705 -5.71295 -6.18578 -4.56597 -5.03641 -6.18578 -6.65705 -5.03641 -5.53375 -7.62818 -7.92321 -6.65705 -7.11585 -7.92321 -8.24633 -7.11585 -7.51723 -6.65705 -7.11585 -5.53375 -5.98883 -7.11585 -7.51723 -5.98883 -6.39125 -8.24633 -8.48687 -7.51723 -7.89081 -8.48687 -8.74856 -7.89081 -8.14963 -7.51723 -7.89081 -6.39125 -6.75352 -7.89081 -8.14963 -6.75352 -7.11061 -8.74856 -8.9459 -8.14963 -8.38219 -8.9459 -9.15917 -8.38219 -8.53748 -8.14963 -8.38219 -7.11061 -7.43941 -8.38219 -8.53748 -7.43941 -7.73678 -9.15917 -9.32647 -8.53748 -8.71607 -9.32647 -9.5072 -8.71607 -8.85149 -8.53748 -8.71607 -7.73678 -7.97967 -8.71607 -8.85149 -7.97967 -8.18961 -9.5072 -9.661 -8.85149 -9.02296 -9.661 -9.82905 -9.02296 -9.20138 -8.85149 -9.02296 -8.18961 -8.38829 -9.02296 -9.20138 -8.38829 -8.63104 -9.82905 -10.0004 -9.20138 -9.56218 -10.0004 -10.205 -9.56218 -9.74873 -9.20138 -9.56218 -8.63104 -8.84309 -9.56218 -9.74873 -8.84309 -8.96122 -10.205 -10.4673 -9.74873 -9.85182 -10.4673 -10.654 -9.85182 -9.92778 -9.74873 -9.85182 -8.96122 -9.04998 -9.85182 -9.92778 -9.04998 -9.11159 -10.654 -10.7697 -9.92778 -9.98794 -10.7697 -10.8532 -9.98794 -10.0277 -9.92778 -9.98794 -9.11159 -9.14671 -9.98794 -10.0277 -9.14671 -9.15738 -10.8532 -10.9184 -10.0277 -10.048 -10.9184 -10.9698 -10.048 -10.0515 -10.0277 -10.048 -9.15738 -9.14828 -10.048 -10.0515 -9.14828 -9.12191 -10.9698 -11.0107 -10.0515 -10.0417 -11.0107 -11.0467 -10.0417 -10.0197 -10.0515 -10.0417 -9.12191 -9.0791 -10.0417 -10.0197 -9.0791 -9.019 -11.0467 -11.0862 -10.0197 -9.98529 -11.0862 -11.1516 -9.98529 -9.96182 -10.0197 -9.98529 -9.019 -8.93981 -9.98529 -9.96182 -8.93981 -8.82425 -11.1516 -11.2652 -9.96182 -10.0647 -11.2652 -11.4013 -10.0647 -10.2365 -9.96182 -10.0647 -8.82425 -8.84253 -10.0647 -10.2365 -8.84253 -9.04595 -11.4013 -11.5375 -10.2365 -10.3821 -11.5375 -11.6724 -10.3821 -10.5339 -10.2365 -10.3821 -9.04595 -9.23503 -10.3821 -10.5339 -9.23503 -9.40837 -11.6724 -11.8063 -10.5339 -10.683 -11.8063 -11.9394 -10.683 -10.8253 -10.5339 -10.683 -9.40837 -9.55553 -10.683 -10.8253 -9.55553 -9.70661 -11.9394 -12.0709 -10.8253 -10.9649 -12.0709 -12.2032 -10.9649 -11.1022 -10.8253 -10.9649 -9.70661 -9.86158 -10.9649 -11.1022 -9.86158 -10.0084 -12.2032 -12.3343 -11.1022 -11.238 -12.3343 -12.4531 -11.238 -11.3715 -11.1022 -11.238 -10.0084 -10.1522 -11.238 -11.3715 -10.1522 -10.2948 -12.4531 -12.5782 -11.3715 -11.5008 -12.5782 -12.7061 -11.5008 -11.6302 -11.3715 -11.5008 -10.2948 -10.4372 -11.5008 -11.6302 -10.4372 -10.5806 -12.7061 -12.7946 -11.6302 -11.7731 -12.7946 -12.8417 -11.7731 -11.8849 -11.6302 -11.7731 -10.5806 -10.7147 -11.7731 -11.8849 -10.7147 -10.8541 -12.8417 -12.9648 -11.8849 -11.9494 -12.9648 -13.1442 -11.9494 -12.0854 -11.8849 -11.9494 -10.8541 -11.0154 -11.9494 -12.0854 -11