# vtk DataFile Version 3.0
#This file was generated by the deal.II library on 2015/9/1 at 17:13: 1
ASCII
DATASET UNSTRUCTURED_GRID

POINTS 11912 double
0 0 0
0.05 0 0
0 0.05 0
0.05 0.05 0
0.05 0 0
0.1 0 0
0.05 0.05 0
0.1 0.05 0
0.1 0 0
0.15 0 0
0.1 0.05 0
0.15 0.05 0
0.15 0 0
0.2 0 0
0.15 0.05 0
0.2 0.05 0
0.2 0 0
0.25 0 0
0.2 0.05 0
0.25 0.05 0
0.25 0 0
0.3 0 0
0.25 0.05 0
0.3 0.05 0
0.3 0 0
0.35 0 0
0.3 0.05 0
0.35 0.05 0
0.35 0 0
0.4 0 0
0.35 0.05 0
0.4 0.05 0
0.4 0 0
0.45 0 0
0.4 0.05 0
0.45 0.05 0
0.45 0 0
0.5 0 0
0.45 0.05 0
0.5 0.05 0
0.5 0 0
0.55 0 0
0.5 0.05 0
0.55 0.05 0
0.55 0 0
0.6 0 0
0.55 0.05 0
0.6 0.05 0
0.6 0 0
0.65 0 0
0.6 0.05 0
0.65 0.05 0
0.65 0 0
0.7 0 0
0.65 0.05 0
0.7 0.05 0
0.7 0 0
0.75 0 0
0.7 0.05 0
0.75 0.05 0
0.75 0 0
0.8 0 0
0.75 0.05 0
0.8 0.05 0
0.8 0 0
0.85 0 0
0.8 0.05 0
0.85 0.05 0
0.85 0 0
0.9 0 0
0.85 0.05 0
0.9 0.05 0
0.9 0 0
0.95 0 0
0.9 0.05 0
0.95 0.05 0
0.95 0 0
1 0 0
0.95 0.05 0
1 0.05 0
1 0 0
1.05 0 0
1 0.05 0
1.05 0.05 0
1.05 0 0
1.1 0 0
1.05 0.05 0
1.1 0.05 0
1.1 0 0
1.15 0 0
1.1 0.05 0
1.15 0.05 0
1.15 0 0
1.2 0 0
1.15 0.05 0
1.2 0.05 0
1.2 0 0
1.25 0 0
1.2 0.05 0
1.25 0.05 0
1.25 0 0
1.3 0 0
1.25 0.05 0
1.3 0.05 0
0.1 0.05 0
0.15 0.05 0
0.1 0.1 0
0.15 0.1 0
0.15 0.05 0
0.2 0.05 0
0.15 0.1 0
0.2 0.1 0
0.2 0.05 0
0.25 0.05 0
0.2 0.1 0
0.25 0.1 0
0.25 0.05 0
0.3 0.05 0
0.25 0.1 0
0.3 0.1 0
0.2 0.1 0
0.25 0.1 0
0.2 0.15 0
0.25 0.15 0
0.25 0.1 0
0.3 0.1 0
0.25 0.15 0
0.3 0.15 0
0.85 0.45 0
0.9 0.45 0
0.85 0.5 0
0.9 0.5 0
0.9 0.45 0
0.95 0.45 0
0.9 0.5 0
0.95 0.5 0
1.45 0.45 0
1.5 0.45 0
1.45 0.5 0
1.5 0.5 0
1.9 0.45 0
1.95 0.45 0
1.9 0.5 0
1.95 0.5 0
1.95 0.45 0
2 0.45 0
1.95 0.5 0
2 0.5 0
0.65 0.5 0
0.7 0.5 0
0.65 0.55 0
0.7 0.55 0
0.85 0.5 0
0.9 0.5 0
0.85 0.55 0
0.9 0.55 0
0.9 0.5 0
0.95 0.5 0
0.9 0.55 0
0.95 0.55 0
1.9 0.5 0
1.95 0.5 0
1.9 0.55 0
1.95 0.55 0
1.95 0.5 0
2 0.5 0
1.95 0.55 0
2 0.55 0
0.2 0.85 0
0.25 0.85 0
0.2 0.9 0
0.25 0.9 0
0.25 0.85 0
0.3 0.85 0
0.25 0.9 0
0.3 0.9 0
0.1 0.9 0
0.15 0.9 0
0.1 0.95 0
0.15 0.95 0
0.15 0.9 0
0.2 0.9 0
0.15 0.95 0
0.2 0.95 0
0.2 0.9 0
0.25 0.9 0
0.2 0.95 0
0.25 0.95 0
0.25 0.9 0
0.3 0.9 0
0.25 0.95 0
0.3 0.95 0
0 0.95 0
0.05 0.95 0
0 1 0
0.05 1 0
0.05 0.95 0
0.1 0.95 0
0.05 1 0
0.1 1 0
0.1 0.95 0
0.15 0.95 0
0.1 1 0
0.15 1 0
0.15 0.95 0
0.2 0.95 0
0.15 1 0
0.2 1 0
0.2 0.95 0
0.25 0.95 0
0.2 1 0
0.25 1 0
0.25 0.95 0
0.3 0.95 0
0.25 1 0
0.3 1 0
0.3 0.95 0
0.35 0.95 0
0.3 1 0
0.35 1 0
0.35 0.95 0
0.4 0.95 0
0.35 1 0
0.4 1 0
0.4 0.95 0
0.45 0.95 0
0.4 1 0
0.45 1 0
0.45 0.95 0
0.5 0.95 0
0.45 1 0
0.5 1 0
0.5 0.95 0
0.55 0.95 0
0.5 1 0
0.55 1 0
0.55 0.95 0
0.6 0.95 0
0.55 1 0
0.6 1 0
0.6 0.95 0
0.65 0.95 0
0.6 1 0
0.65 1 0
0.65 0.95 0
0.7 0.95 0
0.65 1 0
0.7 1 0
0.7 0.95 0
0.75 0.95 0
0.7 1 0
0.75 1 0
0.75 0.95 0
0.8 0.95 0
0.75 1 0
0.8 1 0
0.8 0.95 0
0.85 0.95 0
0.8 1 0
0.85 1 0
0.85 0.95 0
0.9 0.95 0
0.85 1 0
0.9 1 0
0.9 0.95 0
0.95 0.95 0
0.9 1 0
0.95 1 0
0.95 0.95 0
1 0.95 0
0.95 1 0
1 1 0
1 0.95 0
1.05 0.95 0
1 1 0
1.05 1 0
1.05 0.95 0
1.1 0.95 0
1.05 1 0
1.1 1 0
1.1 0.95 0
1.15 0.95 0
1.1 1 0
1.15 1 0
1.15 0.95 0
1.2 0.95 0
1.15 1 0
1.2 1 0
1.2 0.95 0
1.25 0.95 0
1.2 1 0
1.25 1 0
1.25 0.95 0
1.3 0.95 0
1.25 1 0
1.3 1 0
1.3 0 0
1.325 0 0
1.3 0.025 0
1.325 0.025 0
1.325 0 0
1.35 0 0
1.325 0.025 0
1.35 0.025 0
1.3 0.025 0
1.325 0.025 0
1.3 0.05 0
1.325 0.05 0
1.325 0.025 0
1.35 0.025 0
1.325 0.05 0
1.35 0.05 0
1.35 0 0
1.375 0 0
1.35 0.025 0
1.375 0.025 0
1.375 0 0
1.4 0 0
1.375 0.025 0
1.4 0.025 0
1.35 0.025 0
1.375 0.025 0
1.35 0.05 0
1.375 0.05 0
1.375 0.025 0
1.4 0.025 0
1.375 0.05 0
1.4 0.05 0
1.4 0 0
1.425 0 0
1.4 0.025 0
1.425 0.025 0
1.425 0 0
1.45 0 0
1.425 0.025 0
1.45 0.025 0
1.4 0.025 0
1.425 0.025 0
1.4 0.05 0
1.425 0.05 0
1.425 0.025 0
1.45 0.025 0
1.425 0.05 0
1.45 0.05 0
1.45 0 0
1.475 0 0
1.45 0.025 0
1.475 0.025 0
1.475 0 0
1.5 0 0
1.475 0.025 0
1.5 0.025 0
1.45 0.025 0
1.475 0.025 0
1.45 0.05 0
1.475 0.05 0
1.475 0.025 0
1.5 0.025 0
1.475 0.05 0
1.5 0.05 0
1.5 0 0
1.525 0 0
1.5 0.025 0
1.525 0.025 0
1.525 0 0
1.55 0 0
1.525 0.025 0
1.55 0.025 0
1.5 0.025 0
1.525 0.025 0
1.5 0.05 0
1.525 0.05 0
1.525 0.025 0
1.55 0.025 0
1.525 0.05 0
1.55 0.05 0
1.55 0 0
1.575 0 0
1.55 0.025 0
1.575 0.025 0
1.575 0 0
1.6 0 0
1.575 0.025 0
1.6 0.025 0
1.55 0.025 0
1.575 0.025 0
1.55 0.05 0
1.575 0.05 0
1.575 0.025 0
1.6 0.025 0
1.575 0.05 0
1.6 0.05 0
1.6 0 0
1.625 0 0
1.6 0.025 0
1.625 0.025 0
1.625 0 0
1.65 0 0
1.625 0.025 0
1.65 0.025 0
1.6 0.025 0
1.625 0.025 0
1.6 0.05 0
1.625 0.05 0
1.625 0.025 0
1.65 0.025 0
1.625 0.05 0
1.65 0.05 0
1.65 0 0
1.675 0 0
1.65 0.025 0
1.675 0.025 0
1.675 0 0
1.7 0 0
1.675 0.025 0
1.7 0.025 0
1.65 0.025 0
1.675 0.025 0
1.65 0.05 0
1.675 0.05 0
1.675 0.025 0
1.7 0.025 0
1.675 0.05 0
1.7 0.05 0
1.7 0 0
1.725 0 0
1.7 0.025 0
1.725 0.025 0
1.725 0 0
1.75 0 0
1.725 0.025 0
1.75 0.025 0
1.7 0.025 0
1.725 0.025 0
1.7 0.05 0
1.725 0.05 0
1.725 0.025 0
1.75 0.025 0
1.725 0.05 0
1.75 0.05 0
1.75 0 0
1.775 0 0
1.75 0.025 0
1.775 0.025 0
1.775 0 0
1.8 0 0
1.775 0.025 0
1.8 0.025 0
1.75 0.025 0
1.775 0.025 0
1.75 0.05 0
1.775 0.05 0
1.775 0.025 0
1.8 0.025 0
1.775 0.05 0
1.8 0.05 0
1.8 0 0
1.825 0 0
1.8 0.025 0
1.825 0.025 0
1.825 0 0
1.85 0 0
1.825 0.025 0
1.85 0.025 0
1.8 0.025 0
1.825 0.025 0
1.8 0.05 0
1.825 0.05 0
1.825 0.025 0
1.85 0.025 0
1.825 0.05 0
1.85 0.05 0
1.85 0 0
1.875 0 0
1.85 0.025 0
1.875 0.025 0
1.875 0 0
1.9 0 0
1.875 0.025 0
1.9 0.025 0
1.85 0.025 0
1.875 0.025 0
1.85 0.05 0
1.875 0.05 0
1.875 0.025 0
1.9 0.025 0
1.875 0.05 0
1.9 0.05 0
1.9 0 0
1.925 0 0
1.9 0.025 0
1.925 0.025 0
1.925 0 0
1.95 0 0
1.925 0.025 0
1.95 0.025 0
1.9 0.025 0
1.925 0.025 0
1.9 0.05 0
1.925 0.05 0
1.925 0.025 0
1.95 0.025 0
1.925 0.05 0
1.95 0.05 0
1.95 0 0
1.975 0 0
1.95 0.025 0
1.975 0.025 0
1.975 0 0
2 0 0
1.975 0.025 0
2 0.025 0
1.95 0.025 0
1.975 0.025 0
1.95 0.05 0
1.975 0.05 0
1.975 0.025 0
2 0.025 0
1.975 0.05 0
2 0.05 0
0 0.05 0
0.025 0.05 0
0 0.075 0
0.025 0.075 0
0.025 0.05 0
0.05 0.05 0
0.025 0.075 0
0.05 0.075 0
0 0.075 0
0.025 0.075 0
0 0.1 0
0.025 0.1 0
0.025 0.075 0
0.05 0.075 0
0.025 0.1 0
0.05 0.1 0
0.05 0.05 0
0.075 0.05 0
0.05 0.075 0
0.075 0.075 0
0.075 0.05 0
0.1 0.05 0
0.075 0.075 0
0.1 0.075 0
0.05 0.075 0
0.075 0.075 0
0.05 0.1 0
0.075 0.1 0
0.075 0.075 0
0.1 0.075 0
0.075 0.1 0
0.1 0.1 0
0.3 0.05 0
0.325 0.05 0
0.3 0.075 0
0.325 0.075 0
0.325 0.05 0
0.35 0.05 0
0.325 0.075 0
0.35 0.075 0
0.3 0.075 0
0.325 0.075 0
0.3 0.1 0
0.325 0.1 0
0.325 0.075 0
0.35 0.075 0
0.325 0.1 0
0.35 0.1 0
0.35 0.05 0
0.375 0.05 0
0.35 0.075 0
0.375 0.075 0
0.375 0.05 0
0.4 0.05 0
0.375 0.075 0
0.4 0.075 0
0.35 0.075 0
0.375 0.075 0
0.35 0.1 0
0.375 0.1 0
0.375 0.075 0
0.4 0.075 0
0.375 0.1 0
0.4 0.1 0
0.4 0.05 0
0.425 0.05 0
0.4 0.075 0
0.425 0.075 0
0.425 0.05 0
0.45 0.05 0
0.425 0.075 0
0.45 0.075 0
0.4 0.075 0
0.425 0.075 0
0.4 0.1 0
0.425 0.1 0
0.425 0.075 0
0.45 0.075 0
0.425 0.1 0
0.45 0.1 0
0.45 0.05 0
0.475 0.05 0
0.45 0.075 0
0.475 0.075 0
0.475 0.05 0
0.5 0.05 0
0.475 0.075 0
0.5 0.075 0
0.45 0.075 0
0.475 0.075 0
0.45 0.1 0
0.475 0.1 0
0.475 0.075 0
0.5 0.075 0
0.475 0.1 0
0.5 0.1 0
0.5 0.05 0
0.525 0.05 0
0.5 0.075 0
0.525 0.075 0
0.525 0.05 0
0.55 0.05 0
0.525 0.075 0
0.55 0.075 0
0.5 0.075 0
0.525 0.075 0
0.5 0.1 0
0.525 0.1 0
0.525 0.075 0
0.55 0.075 0
0.525 0.1 0
0.55 0.1 0
0.55 0.05 0
0.575 0.05 0
0.55 0.075 0
0.575 0.075 0
0.575 0.05 0
0.6 0.05 0
0.575 0.075 0
0.6 0.075 0
0.55 0.075 0
0.575 0.075 0
0.55 0.1 0
0.575 0.1 0
0.575 0.075 0
0.6 0.075 0
0.575 0.1 0
0.6 0.1 0
0.6 0.05 0
0.625 0.05 0
0.6 0.075 0
0.625 0.075 0
0.625 0.05 0
0.65 0.05 0
0.625 0.075 0
0.65 0.075 0
0.6 0.075 0
0.625 0.075 0
0.6 0.1 0
0.625 0.1 0
0.625 0.075 0
0.65 0.075 0
0.625 0.1 0
0.65 0.1 0
0.65 0.05 0
0.675 0.05 0
0.65 0.075 0
0.675 0.075 0
0.675 0.05 0
0.7 0.05 0
0.675 0.075 0
0.7 0.075 0
0.65 0.075 0
0.675 0.075 0
0.65 0.1 0
0.675 0.1 0
0.675 0.075 0
0.7 0.075 0
0.675 0.1 0
0.7 0.1 0
0.7 0.05 0
0.725 0.05 0
0.7 0.075 0
0.725 0.075 0
0.725 0.05 0
0.75 0.05 0
0.725 0.075 0
0.75 0.075 0
0.7 0.075 0
0.725 0.075 0
0.7 0.1 0
0.725 0.1 0
0.725 0.075 0
0.75 0.075 0
0.725 0.1 0
0.75 0.1 0
0.75 0.05 0
0.775 0.05 0
0.75 0.075 0
0.775 0.075 0
0.775 0.05 0
0.8 0.05 0
0.775 0.075 0
0.8 0.075 0
0.75 0.075 0
0.775 0.075 0
0.75 0.1 0
0.775 0.1 0
0.775 0.075 0
0.8 0.075 0
0.775 0.1 0
0.8 0.1 0
0.8 0.05 0
0.825 0.05 0
0.8 0.075 0
0.825 0.075 0
0.825 0.05 0
0.85 0.05 0
0.825 0.075 0
0.85 0.075 0
0.8 0.075 0
0.825 0.075 0
0.8 0.1 0
0.825 0.1 0
0.825 0.075 0
0.85 0.075 0
0.825 0.1 0
0.85 0.1 0
0.85 0.05 0
0.875 0.05 0
0.85 0.075 0
0.875 0.075 0
0.875 0.05 0
0.9 0.05 0
0.875 0.075 0
0.9 0.075 0
0.85 0.075 0
0.875 0.075 0
0.85 0.1 0
0.875 0.1 0
0.875 0.075 0
0.9 0.075 0
0.875 0.1 0
0.9 0.1 0
0.9 0.05 0
0.925 0.05 0
0.9 0.075 0
0.925 0.075 0
0.925 0.05 0
0.95 0.05 0
0.925 0.075 0
0.95 0.075 0
0.9 0.075 0
0.925 0.075 0
0.9 0.1 0
0.925 0.1 0
0.925 0.075 0
0.95 0.075 0
0.925 0.1 0
0.95 0.1 0
0.95 0.05 0
0.975 0.05 0
0.95 0.075 0
0.975 0.075 0
0.975 0.05 0
1 0.05 0
0.975 0.075 0
1 0.075 0
0.95 0.075 0
0.975 0.075 0
0.95 0.1 0
0.975 0.1 0
0.975 0.075 0
1 0.075 0
0.975 0.1 0
1 0.1 0
1 0.05 0
1.025 0.05 0
1 0.075 0
1.025 0.075 0
1.025 0.05 0
1.05 0.05 0
1.025 0.075 0
1.05 0.075 0
1 0.075 0
1.025 0.075 0
1 0.1 0
1.025 0.1 0
1.025 0.075 0
1.05 0.075 0
1.025 0.1 0
1.05 0.1 0
1.05 0.05 0
1.075 0.05 0
1.05 0.075 0
1.075 0.075 0
1.075 0.05 0
1.1 0.05 0
1.075 0.075 0
1.1 0.075 0
1.05 0.075 0
1.075 0.075 0
1.05 0.1 0
1.075 0.1 0
1.075 0.075 0
1.1 0.075 0
1.075 0.1 0
1.1 0.1 0
1.1 0.05 0
1.125 0.05 0
1.1 0.075 0
1.125 0.075 0
1.125 0.05 0
1.15 0.05 0
1.125 0.075 0
1.15 0.075 0
1.1 0.075 0
1.125 0.075 0
1.1 0.1 0
1.125 0.1 0
1.125 0.075 0
1.15 0.075 0
1.125 0.1 0
1.15 0.1 0
1.15 0.05 0
1.175 0.05 0
1.15 0.075 0
1.175 0.075 0
1.175 0.05 0
1.2 0.05 0
1.175 0.075 0
1.2 0.075 0
1.15 0.075 0
1.175 0.075 0
1.15 0.1 0
1.175 0.1 0
1.175 0.075 0
1.2 0.075 0
1.175 0.1 0
1.2 0.1 0
1.2 0.05 0
1.225 0.05 0
1.2 0.075 0
1.225 0.075 0
1.225 0.05 0
1.25 0.05 0
1.225 0.075 0
1.25 0.075 0
1.2 0.075 0
1.225 0.075 0
1.2 0.1 0
1.225 0.1 0
1.225 0.075 0
[...]
POINT_DATA 11912
SCALARS x_displacement double 1
LOOKUP_TABLE default
0 -1.49087 0 -0.860928 -1.49087 -2.60231 -0.860928 -1.75909 -2.60231 -3.5112 -1.75909 -2.54143 -3.5112 -4.28566 -2.54143 -3.23485 -4.28566 -4.97301 -3.23485 -3.854 -4.97301 -5.61967 -3.854 -4.41786 -5.61967 -6.2653 -4.41786 -4.96289 -6.2653 -6.93261 -4.96289 -5.51044 -6.93261 -7.6046 -5.51044 -6.08535 -7.6046 -8.24499 -6.08535 -6.68756 -8.24499 -8.83116 -6.68756 -7.31134 -8.83116 -9.37511 -7.31134 -7.94046 -9.37511 -9.91402 -7.94046 -8.55552 -9.91402 -10.483 -8.55552 -9.14019 -10.483 -11.0809 -9.14019 -9.69276 -11.0809 -11.6868 -9.69276 -10.2233 -11.6868 -12.2844 -10.2233 -10.743 -12.2844 -12.8651 -10.743 -11.2572 -12.8651 -13.4253 -11.2572 -11.7686 -13.4253 -13.965 -11.7686 -12.277 -13.965 -14.4906 -12.277 -12.7784 -14.4906 -15.0227 -12.7784 -13.2658 -15.0227 -15.5874 -13.2658 -13.7382 -15.5874 -16.1732 -13.7382 -14.1947 -16.1732 -16.6958 -14.1947 -14.6169 -16.6958 -17.072 -14.6169 -14.9964 -1.75909 -2.54143 -1.18549 -1.78982 -2.54143 -3.23485 -1.78982 -2.35021 -3.23485 -3.854 -2.35021 -2.85713 -3.854 -4.41786 -2.85713 -3.29739 -2.35021 -2.85713 -1.57831 -1.98858 -2.85713 -3.29739 -1.98858 -2.35142 -1.02176 -1.14053 -0.0150579 -0.0143704 -1.14053 -1.20083 -0.0143704 -0.0142635 -1.35437 -1.36218 -0.00743139 -0.00718202 -2.0781 -2.33836 -0.00505494 -0.00521815 -2.33836 -2.40971 -0.00521815 -0.00531744 -0.208377 -0.119166 0.324613 0.466558 -0.0150579 -0.0143704 0.992042 1.11175 -0.0143704 -0.0142635 1.11175 1.17239 -0.00505494 -0.00521815 2.06757 2.32768 -0.00521815 -0.00531744 2.32768 2.39887 1.56208 1.97279 2.34313 2.84955 1.97279 2.33578 2.84955 3.28921 1.17961 1.7832 1.7616 2.54427 1.7832 2.34313 2.54427 3.23723 2.34313 2.84955 3.23723 3.85527 2.84955 3.28921 3.85527 4.41766 0 0.862345 0 1.49979 0.862345 1.7616 1.49979 2.61554 1.7616 2.54427 2.61554 3.52553 2.54427 3.23723 3.52553 4.29912 3.23723 3.85527 4.29912 4.98428 3.85527 4.41766 4.98428 5.62783 4.41766 4.96098 5.62783 6.26959 4.96098 5.50646 6.26959 6.93263 5.50646 6.07902 6.93263 7.6003 6.07902 6.67872 7.6003 8.23659 6.67872 7.30034 8.23659 8.81892 7.30034 7.9275 8.81892 9.35926 7.9275 8.54111 9.35926 9.89491 8.54111 9.12465 9.89491 10.4613 9.12465 9.6764 10.4613 11.057 9.6764 10.2064 11.057 11.6612 10.2064 10.7257 11.6612 12.2578 10.7257 11.2395 12.2578 12.8384 11.2395 11.7506 12.8384 13.3992 11.7506 12.2589 13.3992 13.9402 12.2589 12.7603 13.9402 14.4676 12.7603 13.2479 14.4676 15.0015 13.2479 13.7208 15.0015 15.5679 13.7208 14.1778 15.5679 16.1549 14.1778 14.6001 16.1549 16.6779 14.6001 14.9796 16.6779 17.0539 -17.072 -17.2241 -16.0342 -16.1776 -17.2241 -17.3419 -16.1776 -16.3323 -16.0342 -16.1776 -14.9964 -15.1711 -16.1776 -16.3323 -15.1711 -15.3227 -17.3419 -17.4646 -16.3323 -16.4905 -17.4646 -17.5203 -16.4905 -16.6401 -16.3323 -16.4905 -15.3227 -15.457 -16.4905 -16.6401 -15.457 -15.5832 -17.5203 -17.5967 -16.6401 -16.7353 -17.5967 -18.0618 -16.7353 -16.7654 -16.6401 -16.7353 -15.5832 -15.7094 -16.7353 -16.7654 -15.7094 -15.8003 -18.0618 -18.3381 -16.7654 -16.9839 -18.3381 -18.5513 -16.9839 -17.2513 -16.7654 -16.9839 -15.8003 -15.8607 -16.9839 -17.2513 -15.8607 -15.9545 -18.5513 -18.7701 -17.2513 -17.4676 -18.7701 -18.9593 -17.4676 -17.6641 -17.2513 -17.4676 -15.9545 -16.2173 -17.4676 -17.6641 -16.2173 -16.416 -18.9593 -19.1269 -17.6641 -17.8416 -19.1269 -19.2767 -17.8416 -18.0017 -17.6641 -17.8416 -16.416 -16.5961 -17.8416 -18.0017 -16.5961 -16.7687 -19.2767 -19.4091 -18.0017 -18.1448 -19.4091 -19.5236 -18.1448 -18.2699 -18.0017 -18.1448 -16.7687 -16.92 -18.1448 -18.2699 -16.92 -17.0535 -19.5236 -19.6203 -18.2699 -18.3784 -19.6203 -19.7003 -18.3784 -18.4716 -18.2699 -18.3784 -17.0535 -17.1726 -18.3784 -18.4716 -17.1726 -17.2775 -19.7003 -19.7645 -18.4716 -18.5497 -19.7645 -19.8135 -18.5497 -18.6133 -18.4716 -18.5497 -17.2775 -17.3683 -18.5497 -18.6133 -17.3683 -17.4448 -19.8135 -19.8478 -18.6133 -18.663 -19.8478 -19.8687 -18.663 -18.7 -18.6133 -18.663 -17.4448 -17.5075 -18.663 -18.7 -17.5075 -17.5575 -19.8687 -19.8777 -18.7 -18.7255 -19.8777 -19.8769 -18.7255 -18.7413 -18.7 -18.7255 -17.5575 -17.5956 -18.7255 -18.7413 -17.5956 -17.6233 -19.8769 -19.8693 -18.7413 -18.7494 -19.8693 -19.8579 -18.7494 -18.7519 -18.7413 -18.7494 -17.6233 -17.6419 -18.7494 -18.7519 -17.6419 -17.6532 -19.8579 -19.8462 -18.7519 -18.7512 -19.8462 -19.8372 -18.7512 -18.7494 -18.7519 -18.7512 -17.6532 -17.6591 -18.7512 -18.7494 -17.6591 -17.6616 -19.8372 -19.8326 -18.7494 -18.748 -19.8326 -19.8317 -18.748 -18.748 -18.7494 -18.748 -17.6616 -17.6626 -18.748 -18.748 -17.6626 -17.6641 0 -0.430464 0 -0.352906 -0.430464 -0.860928 -0.352906 -0.721048 0 -0.352906 0 -0.272929 -0.352906 -0.721048 -0.272929 -0.585071 -0.860928 -1.31001 -0.721048 -1.09083 -1.31001 -1.75909 -1.09083 -1.47229 -0.721048 -1.09083 -0.585071 -0.891197 -1.09083 -1.47229 -0.891197 -1.18549 -4.41786 -4.69037 -3.85763 -4.08222 -4.69037 -4.96289 -4.08222 -4.30779 -3.85763 -4.08222 -3.29739 -3.49756 -4.08222 -4.30779 -3.49756 -3.67003 -4.96289 -5.23666 -4.30779 -4.54198 -5.23666 -5.51044 -4.54198 -4.78895 -4.30779 -4.54198 -3.67003 -3.84554 -4.54198 -4.78895 -3.84554 -4.0534 -5.51044 -5.79789 -4.78895 -5.04215 -5.79789 -6.08535 -5.04215 -5.30376 -4.78895 -5.04215 -4.0534 -4.27553 -5.04215 -5.30376 -4.27553 -4.48672 -6.08535 -6.38646 -5.30376 -5.59127 -6.38646 -6.68756 -5.59127 -5.90208 -5.30376 -5.59127 -4.48672 -4.7488 -5.59127 -5.90208 -4.7488 -5.07795 -6.68756 -6.99945 -5.90208 -6.2206 -6.99945 -7.31134 -6.2206 -6.54576 -5.90208 -6.2206 -5.07795 -5.42351 -6.2206 -6.54576 -5.42351 -5.74818 -7.31134 -7.6259 -6.54576 -6.8864 -7.6259 -7.94046 -6.8864 -7.23351 -6.54576 -6.8864 -5.74818 -6.13165 -6.8864 -7.23351 -6.13165 -6.54863 -7.94046 -8.24799 -7.23351 -7.57537 -8.24799 -8.55552 -7.57537 -7.90128 -7.23351 -7.57537 -6.54863 -6.94545 -7.57537 -7.90128 -6.94545 -7.29832 -8.55552 -8.84785 -7.90128 -8.20464 -8.84785 -9.14019 -8.20464 -8.48942 -7.90128 -8.20464 -7.29832 -7.60056 -8.20464 -8.48942 -7.60056 -7.86816 -9.14019 -9.41647 -8.48942 -8.75329 -9.41647 -9.69276 -8.75329 -9.00975 -8.48942 -8.75329 -7.86816 -8.10304 -8.75329 -9.00975 -8.10304 -8.33478 -9.69276 -9.95804 -9.00975 -9.25625 -9.95804 -10.2233 -9.25625 -9.49876 -9.00975 -9.25625 -8.33478 -8.559 -9.25625 -9.49876 -8.559 -8.77545 -10.2233 -10.4832 -9.49876 -9.73848 -10.4832 -10.743 -9.73848 -9.97733 -9.49876 -9.73848 -8.77545 -8.99226 -9.73848 -9.97733 -8.99226 -9.20875 -10.743 -11.0001 -9.97733 -10.2169 -11.0001 -11.2572 -10.2169 -10.4579 -9.97733 -10.2169 -9.20875 -9.42967 -10.2169 -10.4579 -9.42967 -9.65479 -11.2572 -11.5129 -10.4579 -10.7004 -11.5129 -11.7686 -10.7004 -10.9447 -10.4579 -10.7004 -9.65479 -9.88389 -10.7004 -10.9447 -9.88389 -10.1169 -11.7686 -12.0228 -10.9447 -11.1904 -12.0228 -12.277 -11.1904 -11.4371 -10.9447 -11.1904 -10.1169 -10.3539 -11.1904 -11.4371 -10.3539 -10.5947 -12.277 -12.5277 -11.4371 -11.6836 -12.5277 -12.7784 -11.6836 -11.9273 -11.4371 -11.6836 -10.5947 -10.8387 -11.6836 -11.9273 -10.8387 -11.0841 -12.7784 -13.0221 -11.9273 -12.1665 -13.0221 -13.2658 -12.1665 -12.3966 -11.9273 -12.1665 -11.0841 -11.3253 -12.1665 -12.3966 -11.3253 -11.5565 -13.2658 -13.502 -12.3966 -12.6198 -13.502 -13.7382 -12.6198 -12.8336 -12.3966 -12.6198 -11.5565 -11.7741 -12.6198 -12.8336 -11.7741 -11.9774 -13.7382 -13.9665 -12.8336 -13.0452 -13.9665 -14.1947 -13.0452 -13.2477 -12.8336 -13.0452 -11.9774 -12.1628 -13.0452 -13.2477 -12.1628 -12.3335 -14.1947 -14.4058 -13.2477 -13.4447 -14.4058 -14.6169 -13.4447 -13.6333 -13.2477 -13.4447 -12.3335 -12.4952 -13.4447 -13.6333 -12.4952 -12.6539 -14.6169 -14.8067 -13.6333 -13.8139 -14.8067 -14.9964 -13.8139 -13.9821 -13.6333 -13.8139 -12.6539 -12.8094 -13.8139 -13.9821 -12.8094 -12.9556 -14.9964 -15.1711 -13.9821 -14.1331 -15.1711 -15.3227 -14.1331 -14.2716 -13.9821 -14.1331 -12.9556 -13.09 -14.1331 -14.2716 -13.09 -13.2167 -15.3227 -15.457 -14.2716 -14.4035 -15.457 -15.5832 -14.4035 -14.5285 -14.2716 -14.4035 -13.2167 -13.3401 -14.4035 -14.5285 -13.3401 -13.4636 -15.5832 -15.7094 -14.5285 -14.641 -15.7094 -15.8003 -14.641 -14.7645 -14.5285 -14.641 -13.4636 -13.5879 -14.641 -14.7645 -13.5879 -13.7175 -15.8003 -15.8607 -14.7645 -14.9174 -15.8607 -15.9545 -14.9174 -14.9987 -14.7645 -14.9174 -13.7175 -13.8433 -14.9174 -14.9987 -13.8433 -13.9709 -15.9545 -16.2173 -14.9987 -15.0029 -16.2173 -16.416 -15.0029 -15.2023 -14.9987 -15.0029 -13.9709 -14.0684 -15.0029 -15.2023 -14.0684 -14.1391 -16.416 -16.5961 -15.2023 -15.4007 -16.5961 -16.7687 -15.4007 -15.5758 -15.2023 -15.4007 -14.1391 -14.2101 -15.4007 -15.5758 -14.2101 -14.4115 -16.7687 -16.92 -15.5758 -15.7298 -16.92 -17.0535 -15.7298 -15.8715 -15.5758 -15.7298 -14.4115 -14.5727 -15.7298 -15.8715 -14.5727 -14.7163 -17.0535 -17.1726 -15.8715 -16.0002 -17.1726 -17.2775 -16.0002 -16.1172 -15.8715 -16.0002 -14.7163 -14.8633 -16.0002 -16.1172 -14.8633 -14.9903 -17.2775 -17.3683 -16.1172 -16.2191 -17.3683 -17.4448 -16.2191 -16.3066 -16.1172 -16.2191 -14.9903 -15.1008 -16.2191 -16.3066 -15.1008 -15.1979 -17.4448 -17.5075 -16.3066 -16.3803 -17.5075 -17.5575 -16.3803 -16.4407 -16.3066 -16.3803 -15.1979 -15.2808 -16.3803 -16.4407 -15.2808 -15.3498 -17.5575 -17.5956 -16.4407 -16.4886 -17.5956 -17.6233 -16.4886 -16.525 -16.4407 -16.4886 -15.3498 -15.4056 -16.4886 -16.525 -15.4056 -15.4487 -17.6233 -17.6419 -16.525 -16.5509 -17.6419 -17.6532 -16.5509 -16.5677 -16.525 -16.5509 -15.4487 -15.4797 -16.5509 -16.5677 -15.4797 -15.5 -17.6532 -17.6591 -16.5677 -16.5773 -17.6591 -17.6616 -16.5773 -16.5818 -16.5677 -16.5773 -15.5 -15.5115 -16.5773 -16.5818 -15.5115 -15.5166 -17.6616 -17.6626 -16.5818 -16.5839 -17.6626 -17.6641 -16.5839 -16.5863 -16.5818 -16.5839 -15.5166 -15.5185 -16.5839 -16.5863 -15.5185 -15.521 0 -0.272929 0 -0.207132 -0.272929 -0.585071 -0.207132 -0.456758 0 -0.207132 0 -0.113419 -0.207132 -0.456758 -0.113419 -0.268365 -0.585071 -0.891197 -0.456758 -0.689516 -0.891197 -1.18549 -0.689516 -0.945737 -0.456758 -0.689516 -0.268365 -0.480174 -0.689516 -0.945737 -0.480174 -0.722407 -1.18549 -1.48765 -0.945737 -1.20807 -1.48765 -1.78982 -1.20807 -1.4615 -0.945737 -1.20807 -0.722407 -0.932383 -1.20807 -1.4615 -0.932383 -1.14794 -1.78982 -2.07001 -1.4615 -1.71403 -2.07001 -2.35021 -1.71403 -1.96426 -1.4615 -1.71403 -1.14794 -1.36858 -1.71403 -1.96426 -1.36858 -1.57831 -3.29739 -3.49756 -2.82441 -2.97844 -3.49756 -3.67003 -2.97844 -3.11845 -2.82441 -2.97844 -2.35142 -2.51796 -2.97844 -3.11845 -2.51796 -2.6626 -3.67003 -3.84554 -3.11845 -3.23736 -3.84554 -4.0534 -3.23736 -3.36053 -3.11845 -3.23736 -2.6626 -2.78899 -3.23736 -3.36053 -2.78899 -2.91399 -4.0534 -4.27553 -3.36053 -3.525 -4.27553 -4.48672 -3.525 -3.72422 -3.36053 -3.525 -2.91399 -3.04627 -3.525 -3.72422 -3.04627 -3.18292 -4.48672 -4.7488 -3.72422 -3.9311 -4.7488 -5.07795 -3.9311 -4.15104 -3.72422 -3.9311 -3.18292 -3.31838 -3.9311 -4.15104 -3.31838 -3.41844 -5.07795 -5.42351 -4.15104 -4.4851 -5.42351 -5.74818 -4.4851 -4.92322 -4.15104 -4.4851 -3.41844 -3.46736 -4.4851 -4.92322 -3.46736 -3.73892 -5.74818 -6.13165 -4.92322 -5.35096 -6.13165 -6.54863 -5.35096 -5.89115 -4.92322 -5.35096 -3.73892 -4.4013 -5.35096 -5.89115 -4.4013 -5.47204 -6.54863 -6.94545 -5.89115 -6.37103 -6.94545 -7.29832 -6.37103 -6.71336 -5.89115 -6.37103 -5.47204 -5.94086 -6.37103 -6.71336 -5.94086 -6.21087 -7.29832 -7.60056 -6.71336 -7.01292 -7.60056 -7.86816 -7.01292 -7.23811 -6.71336 -7.01292 -6.21087 -6.38695 -7.01292 -7.23811 -6.38695 -6.63288 -7.86816 -8.10304 -7.23811 -7.45127 -8.10304 -8.33478 -7.45127 -7.65061 -7.23811 -7.45127 -6.63288 -6.76542 -7.45127 -7.65061 -6.76542 -6.97939 -8.33478 -8.559 -7.65061 -7.85647 -8.559 -8.77545 -7.85647 -8.04604 -7.65061 -7.85647 -6.97939 -7.13874 -7.85647 -8.04604 -7.13874 -7.31712 -8.77545 -8.99226 -8.04604 -8.24143 -8.99226 -9.20875 -8.24143 -8.43615 -8.04604 -8.24143 -7.31712 -7.48699 -8.24143 -8.43615 -7.48699 -7.66264 -9.20875 -9.42967 -8.43615 -8.63872 -9.42967 -9.65479 -8.63872 -8.84807 -8.43615 -8.63872 -7.66264 -7.84732 -8.63872 -8.84807 -7.84732 -8.04087 -9.65479 -9.88389 -8.84807 -9.06372 -9.88389 -10.1169 -9.06372 -9.28553 -8.84807 -9.06372 -8.04087 -8.24309 -9.06372 -9.28553 -8.24309 -8.45369 -10.1169 -10.3539 -9.28553 -9.51367 -10.3539 -10.5947 -9.51367 -9.7492 -9.28553 -9.51367 -8.45369 -8.67316 -9.51367 -9.7492 -8.67316 -8.90421 -10.5947 -10.8387 -9.7492 -9.99554 -10.8387 -11.0841 -9.99554 -10.2544 -9.7492 -9.99554 -8.90421 -9.15959 -9.99554 -10.2544 -9.15959 -9.44895 -11.0841 -11.3253 -10.2544 -10.5148 -11.3253 -11.5565 -10.5148 -10.7662 -10.2544 -10.5148 -9.44895 -9.76558 -10.5148 -10.7662 -9.76558 -10.1292 -11.5565 -11.7741 -10.7662 -11.0054 -11.7741 -11.9774 -11.0054 -11.1938 -10.7662 -11.0054 -10.1292 -10.3524 -11.0054 -11.1938 -10.3524 -10.4579 -11.9774 -12.1628 -11.1938 -11.3313 -12.1628 -12.3335 -11.3313 -11.446 -11.1938 -11.3313 -10.4579 -10.5257 -11.3313 -11.446 -10.5257 -10.5781 -12.3335 -12.4952 -11.446 -11.5536 -12.4952 -12.6539 -11.5536 -11.6617 -11.446 -11.5536 -10.5781 -10.6228 -11.5536 -11.6617 -10.6228 -10.6626 -12.6539 -12.8094 -11.6617 -11.7746 -12.8094 -12.9556 -11.7746 -11.8961 -11.6617 -11.7746 -10.6626 -10.7061 -11.7746 -11.8961 -10.7061 -10.781 -12.9556 -13.09 -11.8961 -12.0198 -13.09 -13.2167 -12.0198 -12.1417 -11.8961 -12.0198 -10.781 -10.8974 -12.0198 -12.1417 -10.8974 -11.0379 -13.2167 -13.3401 -12.1417 -12.2672 -13.3401 -13.4636 -12.2672 -12.3964 -12.1417 -12.2672 -11.0379 -11.1811 -12.2672 -12.3964 -11.1811 -11.3204 -13.4636 -13.5879 -12.3964 -12.5261 -13.5879 -13.7175 -12.5261 -12.658 -12.3964 -12.5261 -11.3204 -11.4585 -12.5261 -12.658 -11.4585 -11.5963 -13.7175 -13.8433 -12.658 -12.7892 -13.8433 -13.9709 -12.7892 -12.9107 -12.658 -12.7892 -11.5963 -11.7338 -12.7892 -12.9107 -11.7338 -11.8721 -13.9709 -14.0684 -12.9107 -13.0457 -14.0684 -14.1391 -13.0457 -13.2081 -12.9107 -13.0457 -11.8721 -12.0154 -13.0457 -13.2081 -12.0154 -12.1498 -14.1391 -14.2101 -13.2081 -13.2931 -14.2101 -14.4115 -13.2931 -13.2709 -13.2081 -13.2931 -12.1498 -12.2832 -13.2931 -13.2709 -12.2832 -12.4118 -14.4115 -14.5727 -13.2709 -13.4056 -14.5727 -14.7163 -13.4056 -13.6113 -13.2709 -13.4056 -12.4118 -12.5192 -13.4056 -13.6113 -12.5192 -12.5417 -14.7163 -14.8633 -13.6113 -13.766 -14.8633 -14.9903 -13.766 -13.8929 -13.6113 -13.766 -12.5417 -12.6895 -13.766 -13.8929 -12.6895 -12.8244 -14.9903 -15.1008 -13.8929 -14.0126 -15.1008 -15.1979 -14.0126 -14.1183 -13.8929 -14.0126 -12.8244 -12.9551 -14.0126 -14.1183 -12.9551 -13.0662 -15.1979 -15.2808 -14.1183 -14.2086 -15.2808 -15.3498 -14.2086 -14.285 -14.1183 -14.2086 -13.0662 -13.1625 -14.2086 -14.285 -13.1625 -13.2459 -15.3498 -15.4056 -14.285 -14.3477 -15.4056 -15.4487 -14.3477 -14.3965 -14.285 -14.3477 -13.2459 -13.3161 -14.3477 -14.3965 -13.3161 -13.3702 -15.4487 -15.4797 -14.3965 -14.4316 -15.4797 -15.5 -14.4316 -14.4543 -14.3965 -14.4316 -13.3702 -13.409 -14.4316 -14.4543 -13.409 -13.4337 -15.5 -15.5115 -14.4543 -14.4665 -15.5115 -15.5166 -14.4665 -14.471 -14.4543 -14.4665 -13.4337 -13.4462 -14.4665 -14.471 -13.4462 -13.4496 -15.5166 -15.5185 -14.471 -14.4718 -15.5185 -15.521 -14.4718 -14.4735 -14.471 -14.4718 -13.4496 -13.4483 -14.4718 -14.4735 -13.4483 -13.4481 0 -0.113419 0 -0.0850623 -0.113419 -0.268365 -0.0850623 -0.0578682 0 -0.0850623 0 -0.109684 -0.0850623 -0.0578682 -0.109684 -0.244353 -0.268365 -0.480174 -0.0578682 -0.273755 -0.480174 -0.722407 -0.273755 -0.465948 -0.0578682 -0.273755 -0.244353 -0.410453 -0.273755 -0.465948 -0.410453 -0.237339 -0.722407 -0.932383 -0.465948 -0.654485 -0.932383 -1.14794 -0.654485 -0.848738 -0.465948 -0.654485 -0.237339 -0.361493 -0.654485 -0.848738 -0.361493 -0.518434 -1.14794 -1.36858 -0.848738 -1.02758 -1.36858 -1.57831 -1.02758 -1.21433 -0.848738 -1.02758 -0.518434 -0.685761 -1.02758 -1.21433 -0.685761 -0.864703 -1.57831 -1.78345 -1.21433 -1.40679 -1.78345 -1.98858 -1.40679 -1.58849 -1.21433 -1.40679 -0.864703 -1.02869 -1.40679 -1.58849 -1.02869 -1.19982 -1.98858 -2.17 -1.58849 -1.76632 -2.17 -2.35142 -1.76632 -1.936 -1.58849 -1.76632 -1.19982 -1.37533 -1.76632 -1.936 -1.37533 -1.54195 -2.35142 -2.51796 -1.936 -2.09796 -2.51796 -2.6626 -2.09796 -2.25281 -1.936 -2.09796 -1.54195 -1.70505 -2.09796 -2.25281 -1.70505 -1.8668 -2.6626 -2.78899 -2.25281 -2.40141 -2.78899 -2.91399 -2.40141 -2.54921 -2.25281 -2.40141 -1.8668 -2.0261 -2.40141 -2.54921 -2.0261 -2.18287 -2.91399 -3.04627 -2.54921 -2.69169 -3.04627 -3.18292 -2.69169 -2.82988 -2.54921 -2.69169 -2.18287 -2.33952 -2.69169 -2.82988 -2.33952 -2.5021 -3.18292 -3.31838 -2.82988 -2.97382 -3.31838 -3.41844 -2.97382 -3.11803 -2.82988 -2.97382 -2.5021 -2.6633 -2.97382 -3.11803 -2.6633 -2.82312 -3.41844 -3.46736 -3.11803 -3.29887 -3.46736 -3.73892 -3.29887 -3.46427 -3.11803 -3.29887 -2.82312 -2.9993 -3.29887 -3.46427 -2.9993 -3.17555 -3.73892 -4.4013 -3.46427 -3.37293 -4.4013 -5.47204 -3.37293 -3.54855 -3.46427 -3.37293 -3.17555 -3.35389 -3.37293 -3.54855 -3.35389 -3.52304 -5.47204 -5.94086 -3.54855 -4.37119 -5.94086 -6.21087 -4.37119 -4.94359 -3.54855 -4.37119 -3.52304 -3.42446 -4.37119 -4.94359 -3.42446 -3.43861 -6.21087 -6.38695 -4.94359 -5.27406 -6.38695 -6.63288 -5.27406 -5.56702 -4.94359 -5.27406 -3.43861 -4.13604 -5.27406 -5.56702 -4.13604 -4.59888 -6.63288 -6.76542 -5.56702 -5.88484 -6.76542 -6.97939 -5.88484 -6.14393 -5.56702 -5.88484 -4.59888 -4.96319 -5.88484 -6.14393 -4.96319 -5.2833 -6.97939 -7.13874 -6.14393 -6.38299 -7.13874 -7.31712 -6.38299 -6.60302 -6.14393 -6.38299 -5.2833 -5.56729 -6.38299 -6.60302 -5.56729 -5.8551 -7.31712 -7.48699 -6.60302 -6.82548 -7.48699 -7.66264 -6.82548 -7.05233 -6.60302 -6.82548 -5.8551 -6.11433 -6.82548 -7.05233 -6.11433 -6.39081 -7.66264 -7.84732 -7.05233 -7.28936 -7.84732 -8.04087 -7.28936 -7.53172 -7.05233 -7.28936 -6.39081 -6.67929 -7.28936 -7.53172 -6.67929 -6.96563 -8.04087 -8.24309 -7.53172 -7.77595 -8.24309 -8.45369 -7.77595 -8.02497 -7.53172 -7.77595 -6.96563 -7.24293 -7.77595 -8.02497 -7.24293 -7.5124 -8.45369 -8.67316 -8.02497 -8.29358 -8.67316 -8.90421 -8.29358 -8.61647 -8.02497 -8.29358 -7.5124 -7.7738 -8.29358 -8.61647 -7.7738 -8.02895 -8.90421 -9.15959 -8.61647 -9.1272 -9.15959 -9.44895 -9.1272 -9.32851 -8.61647 -9.1272 -8.02895 -8.28194 -9.1272 -9.32851 -8.28194 -8.60639 -9.44895 -9.76558 -9.32851 -9.5219 -9.76558 -10.1292 -9.5219 -9.59283 -9.32851 -9.5219 -8.60639 -8.78894 -9.5219 -9.59283 -8.78894 -8.84452 -10.1292 -10.3524 -9.59283 -9.65467 -10.3524 -10.4579 -9.65467 -9.69543 -9.59283 -9.65467 -8.84452 -8.87527 -9.65467 -9.69543 -8.87527 -8.88738 -10.4579 -10.5257 -9.69543 -9.71507 -10.5257 -10.5781 -9.71507 -9.71927 -9.69543 -9.71507 -8.88738 -8.88257 -9.71507 -9.71927 -8.88257 -8.85597 -10.5781 -10.6228 -9.71927 -9.70902 -10.6228 -10.6626 -9.70902 -9.68534 -9.71927 -9.70902 -8.85597 -8.81021 -9.70902 -9.68534 -8.81021 -8.74524 -10.6626 -10.7061 -9.68534 -9.64375 -10.7061 -10.781 -9.64375 -9.61685 -9.68534 -9.64375 -8.74524 -8.66224 -9.64375 -9.61685 -8.66224 -8.49907 -10.781 -10.8974 -9.61685 -9.74763 -10.8974 -11.0379 -9.74763 -9.92933 -9.61685 -9.74763 -8.49907 -8.60104 -9.74763 -9.92933 -8.60104 -8.80534 -11.0379 -11.1811 -9.92933 -10.0781 -11.1811 -11.3204 -10.0781 -10.2332 -9.92933 -10.0781 -8.80534 -8.98188 -10.0781 -10.2332 -8.98188 -9.16117 -11.3204 -11.4585 -10.2332 -10.3904 -11.4585 -11.5963 -10.3904 -10.5388 -10.2332 -10.3904 -9.16117 -9.32188 -10.3904 -10.5388 -9.32188 -9.48119 -11.5963 -11.7338 -10.5388 -10.6848 -11.7338 -11.8721 -10.6848 -10.8296 -10.5388 -10.6848 -9.48119 -9.63995 -10.6848 -10.8296 -9.63995 -9.7911 -11.8721 -12.0154 -10.8296 -10.9756 -12.0154 -12.1498 -10.9756 -11.1167 -10.8296 -10.9756 -9.7911 -9.93893 -10.9756 -11.1167 -9.93893 -10.0843 -12.1498 -12.2832 -11.1167 -11.2496 -12.2832 -12.4118 -11.2496 -11.3931 -11.1167 -11.2496 -10.0843 -10.2309 -11.2496 -11.3931 -10.2309 -10.3775 -12.4118 -12.5192 -11.3931 -11.5463 -12.5192 -12.5417 -11.5463 -11.6359 -11.3931 -11.5463 -10.3775 -10.5099 -11.5463 -11.6359 -10.5099 -10.6525 -12.5417 -12.6895 -11.6359 -11.6577 -12.6895 -12.8244 -11.6577 -11.7828 -11.6359 -11.6577 -10.6525 -10.8228 -11.6577 -11.7828 -10.8228 -10.9151 -12.8244 -12.9551 -11