# vtk DataFile Version 3.0
#This file was generated by the deal.II library on 2015/9/1 at 17:12:53
ASCII
DATASET UNSTRUCTURED_GRID

POINTS 3200 double
0 0 0
0.05 0 0
0 0.05 0
0.05 0.05 0
0.05 0 0
0.1 0 0
0.05 0.05 0
0.1 0.05 0
0.1 0 0
0.15 0 0
0.1 0.05 0
0.15 0.05 0
0.15 0 0
0.2 0 0
0.15 0.05 0
0.2 0.05 0
0.2 0 0
0.25 0 0
0.2 0.05 0
0.25 0.05 0
0.25 0 0
0.3 0 0
0.25 0.05 0
0.3 0.05 0
0.3 0 0
0.35 0 0
0.3 0.05 0
0.35 0.05 0
0.35 0 0
0.4 0 0
0.35 0.05 0
0.4 0.05 0
0.4 0 0
0.45 0 0
0.4 0.05 0
0.45 0.05 0
0.45 0 0
0.5 0 0
0.45 0.05 0
0.5 0.05 0
0.5 0 0
0.55 0 0
0.5 0.05 0
0.55 0.05 0
0.55 0 0
0.6 0 0
0.55 0.05 0
0.6 0.05 0
0.6 0 0
0.65 0 0
0.6 0.05 0
0.65 0.05 0
0.65 0 0
0.7 0 0
0.65 0.05 0
0.7 0.05 0
0.7 0 0
0.75 0 0
0.7 0.05 0
0.75 0.05 0
0.75 0 0
0.8 0 0
0.75 0.05 0
0.8 0.05 0
0.8 0 0
0.85 0 0
0.8 0.05 0
0.85 0.05 0
0.85 0 0
0.9 0 0
0.85 0.05 0
0.9 0.05 0
0.9 0 0
0.95 0 0
0.9 0.05 0
0.95 0.05 0
0.95 0 0
1 0 0
0.95 0.05 0
1 0.05 0
1 0 0
1.05 0 0
1 0.05 0
1.05 0.05 0
1.05 0 0
1.1 0 0
1.05 0.05 0
1.1 0.05 0
1.1 0 0
1.15 0 0
1.1 0.05 0
1.15 0.05 0
1.15 0 0
1.2 0 0
1.15 0.05 0
1.2 0.05 0
1.2 0 0
1.25 0 0
1.2 0.05 0
1.25 0.05 0
1.25 0 0
1.3 0 0
1.25 0.05 0
1.3 0.05 0
1.3 0 0
1.35 0 0
1.3 0.05 0
1.35 0.05 0
1.35 0 0
1.4 0 0
1.35 0.05 0
1.4 0.05 0
1.4 0 0
1.45 0 0
1.4 0.05 0
1.45 0.05 0
1.45 0 0
1.5 0 0
1.45 0.05 0
1.5 0.05 0
1.5 0 0
1.55 0 0
1.5 0.05 0
1.55 0.05 0
1.55 0 0
1.6 0 0
1.55 0.05 0
1.6 0.05 0
1.6 0 0
1.65 0 0
1.6 0.05 0
1.65 0.05 0
1.65 0 0
1.7 0 0
1.65 0.05 0
1.7 0.05 0
1.7 0 0
1.75 0 0
1.7 0.05 0
1.75 0.05 0
1.75 0 0
1.8 0 0
1.75 0.05 0
1.8 0.05 0
1.8 0 0
1.85 0 0
1.8 0.05 0
1.85 0.05 0
1.85 0 0
1.9 0 0
1.85 0.05 0
1.9 0.05 0
1.9 0 0
1.95 0 0
1.9 0.05 0
1.95 0.05 0
1.95 0 0
2 0 0
1.95 0.05 0
2 0.05 0
0 0.05 0
0.05 0.05 0
0 0.1 0
0.05 0.1 0
0.05 0.05 0
0.1 0.05 0
0.05 0.1 0
0.1 0.1 0
0.1 0.05 0
0.15 0.05 0
0.1 0.1 0
0.15 0.1 0
0.15 0.05 0
0.2 0.05 0
0.15 0.1 0
0.2 0.1 0
0.2 0.05 0
0.25 0.05 0
0.2 0.1 0
0.25 0.1 0
0.25 0.05 0
0.3 0.05 0
0.25 0.1 0
0.3 0.1 0
0.3 0.05 0
0.35 0.05 0
0.3 0.1 0
0.35 0.1 0
0.35 0.05 0
0.4 0.05 0
0.35 0.1 0
0.4 0.1 0
0.4 0.05 0
0.45 0.05 0
0.4 0.1 0
0.45 0.1 0
0.45 0.05 0
0.5 0.05 0
0.45 0.1 0
0.5 0.1 0
0.5 0.05 0
0.55 0.05 0
0.5 0.1 0
0.55 0.1 0
0.55 0.05 0
0.6 0.05 0
0.55 0.1 0
0.6 0.1 0
0.6 0.05 0
0.65 0.05 0
0.6 0.1 0
0.65 0.1 0
0.65 0.05 0
0.7 0.05 0
0.65 0.1 0
0.7 0.1 0
0.7 0.05 0
0.75 0.05 0
0.7 0.1 0
0.75 0.1 0
0.75 0.05 0
0.8 0.05 0
0.75 0.1 0
0.8 0.1 0
0.8 0.05 0
0.85 0.05 0
0.8 0.1 0
0.85 0.1 0
0.85 0.05 0
0.9 0.05 0
0.85 0.1 0
0.9 0.1 0
0.9 0.05 0
0.95 0.05 0
0.9 0.1 0
0.95 0.1 0
0.95 0.05 0
1 0.05 0
0.95 0.1 0
1 0.1 0
1 0.05 0
1.05 0.05 0
1 0.1 0
1.05 0.1 0
1.05 0.05 0
1.1 0.05 0
1.05 0.1 0
1.1 0.1 0
1.1 0.05 0
1.15 0.05 0
1.1 0.1 0
1.15 0.1 0
1.15 0.05 0
1.2 0.05 0
1.15 0.1 0
1.2 0.1 0
1.2 0.05 0
1.25 0.05 0
1.2 0.1 0
1.25 0.1 0
1.25 0.05 0
1.3 0.05 0
1.25 0.1 0
1.3 0.1 0
1.3 0.05 0
1.35 0.05 0
1.3 0.1 0
1.35 0.1 0
1.35 0.05 0
1.4 0.05 0
1.35 0.1 0
1.4 0.1 0
1.4 0.05 0
1.45 0.05 0
1.4 0.1 0
1.45 0.1 0
1.45 0.05 0
1.5 0.05 0
1.45 0.1 0
1.5 0.1 0
1.5 0.05 0
1.55 0.05 0
1.5 0.1 0
1.55 0.1 0
1.55 0.05 0
1.6 0.05 0
1.55 0.1 0
1.6 0.1 0
1.6 0.05 0
1.65 0.05 0
1.6 0.1 0
1.65 0.1 0
1.65 0.05 0
1.7 0.05 0
1.65 0.1 0
1.7 0.1 0
1.7 0.05 0
1.75 0.05 0
1.7 0.1 0
1.75 0.1 0
1.75 0.05 0
1.8 0.05 0
1.75 0.1 0
1.8 0.1 0
1.8 0.05 0
1.85 0.05 0
1.8 0.1 0
1.85 0.1 0
1.85 0.05 0
1.9 0.05 0
1.85 0.1 0
1.9 0.1 0
1.9 0.05 0
1.95 0.05 0
1.9 0.1 0
1.95 0.1 0
1.95 0.05 0
2 0.05 0
1.95 0.1 0
2 0.1 0
0 0.1 0
0.05 0.1 0
0 0.15 0
0.05 0.15 0
0.05 0.1 0
0.1 0.1 0
0.05 0.15 0
0.1 0.15 0
0.1 0.1 0
0.15 0.1 0
0.1 0.15 0
0.15 0.15 0
0.15 0.1 0
0.2 0.1 0
0.15 0.15 0
0.2 0.15 0
0.2 0.1 0
0.25 0.1 0
0.2 0.15 0
0.25 0.15 0
0.25 0.1 0
0.3 0.1 0
0.25 0.15 0
0.3 0.15 0
0.3 0.1 0
0.35 0.1 0
0.3 0.15 0
0.35 0.15 0
0.35 0.1 0
0.4 0.1 0
0.35 0.15 0
0.4 0.15 0
0.4 0.1 0
0.45 0.1 0
0.4 0.15 0
0.45 0.15 0
0.45 0.1 0
0.5 0.1 0
0.45 0.15 0
0.5 0.15 0
0.5 0.1 0
0.55 0.1 0
0.5 0.15 0
0.55 0.15 0
0.55 0.1 0
0.6 0.1 0
0.55 0.15 0
0.6 0.15 0
0.6 0.1 0
0.65 0.1 0
0.6 0.15 0
0.65 0.15 0
0.65 0.1 0
0.7 0.1 0
0.65 0.15 0
0.7 0.15 0
0.7 0.1 0
0.75 0.1 0
0.7 0.15 0
0.75 0.15 0
0.75 0.1 0
0.8 0.1 0
0.75 0.15 0
0.8 0.15 0
0.8 0.1 0
0.85 0.1 0
0.8 0.15 0
0.85 0.15 0
0.85 0.1 0
0.9 0.1 0
0.85 0.15 0
0.9 0.15 0
0.9 0.1 0
0.95 0.1 0
0.9 0.15 0
0.95 0.15 0
0.95 0.1 0
1 0.1 0
0.95 0.15 0
1 0.15 0
1 0.1 0
1.05 0.1 0
1 0.15 0
1.05 0.15 0
1.05 0.1 0
1.1 0.1 0
1.05 0.15 0
1.1 0.15 0
1.1 0.1 0
1.15 0.1 0
1.1 0.15 0
1.15 0.15 0
1.15 0.1 0
1.2 0.1 0
1.15 0.15 0
1.2 0.15 0
1.2 0.1 0
1.25 0.1 0
1.2 0.15 0
1.25 0.15 0
1.25 0.1 0
1.3 0.1 0
1.25 0.15 0
1.3 0.15 0
1.3 0.1 0
1.35 0.1 0
1.3 0.15 0
1.35 0.15 0
1.35 0.1 0
1.4 0.1 0
1.35 0.15 0
1.4 0.15 0
1.4 0.1 0
1.45 0.1 0
1.4 0.15 0
1.45 0.15 0
1.45 0.1 0
1.5 0.1 0
1.45 0.15 0
1.5 0.15 0
1.5 0.1 0
1.55 0.1 0
1.5 0.15 0
1.55 0.15 0
1.55 0.1 0
1.6 0.1 0
1.55 0.15 0
1.6 0.15 0
1.6 0.1 0
1.65 0.1 0
1.6 0.15 0
1.65 0.15 0
1.65 0.1 0
1.7 0.1 0
1.65 0.15 0
1.7 0.15 0
1.7 0.1 0
1.75 0.1 0
1.7 0.15 0
1.75 0.15 0
1.75 0.1 0
1.8 0.1 0
1.75 0.15 0
1.8 0.15 0
1.8 0.1 0
1.85 0.1 0
1.8 0.15 0
1.85 0.15 0
1.85 0.1 0
1.9 0.1 0
1.85 0.15 0
1.9 0.15 0
1.9 0.1 0
1.95 0.1 0
1.9 0.15 0
1.95 0.15 0
1.95 0.1 0
2 0.1 0
1.95 0.15 0
2 0.15 0
0 0.15 0
0.05 0.15 0
0 0.2 0
0.05 0.2 0
0.05 0.15 0
0.1 0.15 0
0.05 0.2 0
0.1 0.2 0
0.1 0.15 0
0.15 0.15 0
0.1 0.2 0
0.15 0.2 0
0.15 0.15 0
0.2 0.15 0
0.15 0.2 0
0.2 0.2 0
0.2 0.15 0
0.25 0.15 0
0.2 0.2 0
0.25 0.2 0
0.25 0.15 0
0.3 0.15 0
0.25 0.2 0
0.3 0.2 0
0.3 0.15 0
0.35 0.15 0
0.3 0.2 0
0.35 0.2 0
0.35 0.15 0
0.4 0.15 0
0.35 0.2 0
0.4 0.2 0
0.4 0.15 0
0.45 0.15 0
0.4 0.2 0
0.45 0.2 0
0.45 0.15 0
0.5 0.15 0
0.45 0.2 0
0.5 0.2 0
0.5 0.15 0
0.55 0.15 0
0.5 0.2 0
0.55 0.2 0
0.55 0.15 0
0.6 0.15 0
0.55 0.2 0
0.6 0.2 0
0.6 0.15 0
0.65 0.15 0
0.6 0.2 0
0.65 0.2 0
0.65 0.15 0
0.7 0.15 0
0.65 0.2 0
0.7 0.2 0
0.7 0.15 0
0.75 0.15 0
0.7 0.2 0
0.75 0.2 0
0.75 0.15 0
0.8 0.15 0
0.75 0.2 0
0.8 0.2 0
0.8 0.15 0
0.85 0.15 0
0.8 0.2 0
0.85 0.2 0
0.85 0.15 0
0.9 0.15 0
0.85 0.2 0
0.9 0.2 0
0.9 0.15 0
0.95 0.15 0
0.9 0.2 0
0.95 0.2 0
0.95 0.15 0
1 0.15 0
0.95 0.2 0
1 0.2 0
1 0.15 0
1.05 0.15 0
1 0.2 0
1.05 0.2 0
1.05 0.15 0
1.1 0.15 0
1.05 0.2 0
1.1 0.2 0
1.1 0.15 0
1.15 0.15 0
1.1 0.2 0
1.15 0.2 0
1.15 0.15 0
1.2 0.15 0
1.15 0.2 0
1.2 0.2 0
1.2 0.15 0
1.25 0.15 0
1.2 0.2 0
1.25 0.2 0
1.25 0.15 0
1.3 0.15 0
1.25 0.2 0
1.3 0.2 0
1.3 0.15 0
1.35 0.15 0
1.3 0.2 0
1.35 0.2 0
1.35 0.15 0
1.4 0.15 0
1.35 0.2 0
1.4 0.2 0
1.4 0.15 0
1.45 0.15 0
1.4 0.2 0
1.45 0.2 0
1.45 0.15 0
1.5 0.15 0
1.45 0.2 0
1.5 0.2 0
1.5 0.15 0
1.55 0.15 0
1.5 0.2 0
1.55 0.2 0
1.55 0.15 0
1.6 0.15 0
1.55 0.2 0
1.6 0.2 0
1.6 0.15 0
1.65 0.15 0
1.6 0.2 0
1.65 0.2 0
1.65 0.15 0
1.7 0.15 0
1.65 0.2 0
1.7 0.2 0
1.7 0.15 0
1.75 0.15 0
1.7 0.2 0
1.75 0.2 0
1.75 0.15 0
1.8 0.15 0
1.75 0.2 0
1.8 0.2 0
1.8 0.15 0
1.85 0.15 0
1.8 0.2 0
1.85 0.2 0
1.85 0.15 0
1.9 0.15 0
1.85 0.2 0
1.9 0.2 0
1.9 0.15 0
1.95 0.15 0
1.9 0.2 0
1.95 0.2 0
1.95 0.15 0
2 0.15 0
1.95 0.2 0
2 0.2 0
0 0.2 0
0.05 0.2 0
0 0.25 0
0.05 0.25 0
0.05 0.2 0
0.1 0.2 0
0.05 0.25 0
0.1 0.25 0
0.1 0.2 0
0.15 0.2 0
0.1 0.25 0
0.15 0.25 0
0.15 0.2 0
0.2 0.2 0
0.15 0.25 0
0.2 0.25 0
0.2 0.2 0
0.25 0.2 0
0.2 0.25 0
0.25 0.25 0
0.25 0.2 0
0.3 0.2 0
0.25 0.25 0
0.3 0.25 0
0.3 0.2 0
0.35 0.2 0
0.3 0.25 0
0.35 0.25 0
0.35 0.2 0
0.4 0.2 0
0.35 0.25 0
0.4 0.25 0
0.4 0.2 0
0.45 0.2 0
0.4 0.25 0
0.45 0.25 0
0.45 0.2 0
0.5 0.2 0
0.45 0.25 0
0.5 0.25 0
0.5 0.2 0
0.55 0.2 0
0.5 0.25 0
0.55 0.25 0
0.55 0.2 0
0.6 0.2 0
0.55 0.25 0
0.6 0.25 0
0.6 0.2 0
0.65 0.2 0
0.6 0.25 0
0.65 0.25 0
0.65 0.2 0
0.7 0.2 0
0.65 0.25 0
0.7 0.25 0
0.7 0.2 0
0.75 0.2 0
0.7 0.25 0
0.75 0.25 0
0.75 0.2 0
0.8 0.2 0
0.75 0.25 0
0.8 0.25 0
0.8 0.2 0
0.85 0.2 0
0.8 0.25 0
0.85 0.25 0
0.85 0.2 0
0.9 0.2 0
0.85 0.25 0
0.9 0.25 0
0.9 0.2 0
0.95 0.2 0
0.9 0.25 0
0.95 0.25 0
0.95 0.2 0
1 0.2 0
0.95 0.25 0
1 0.25 0
1 0.2 0
1.05 0.2 0
1 0.25 0
1.05 0.25 0
1.05 0.2 0
1.1 0.2 0
1.05 0.25 0
1.1 0.25 0
1.1 0.2 0
1.15 0.2 0
1.1 0.25 0
1.15 0.25 0
1.15 0.2 0
1.2 0.2 0
1.15 0.25 0
1.2 0.25 0
1.2 0.2 0
1.25 0.2 0
1.2 0.25 0
1.25 0.25 0
1.25 0.2 0
1.3 0.2 0
1.25 0.25 0
1.3 0.25 0
1.3 0.2 0
1.35 0.2 0
1.3 0.25 0
1.35 0.25 0
1.35 0.2 0
1.4 0.2 0
1.35 0.25 0
1.4 0.25 0
1.4 0.2 0
1.45 0.2 0
1.4 0.25 0
1.45 0.25 0
1.45 0.2 0
1.5 0.2 0
1.45 0.25 0
1.5 0.25 0
1.5 0.2 0
1.55 0.2 0
1.5 0.25 0
1.55 0.25 0
1.55 0.2 0
1.6 0.2 0
1.55 0.25 0
1.6 0.25 0
1.6 0.2 0
1.65 0.2 0
1.6 0.25 0
1.65 0.25 0
1.65 0.2 0
1.7 0.2 0
1.65 0.25 0
1.7 0.25 0
1.7 0.2 0
1.75 0.2 0
1.7 0.25 0
1.75 0.25 0
1.75 0.2 0
1.8 0.2 0
1.75 0.25 0
1.8 0.25 0
1.8 0.2 0
1.85 0.2 0
1.8 0.25 0
1.85 0.25 0
1.85 0.2 0
1.9 0.2 0
1.85 0.25 0
1.9 0.25 0
1.9 0.2 0
1.95 0.2 0
1.9 0.25 0
1.95 0.25 0
1.95 0.2 0
2 0.2 0
1.95 0.25 0
2 0.25 0
0 0.25 0
0.05 0.25 0
0 0.3 0
0.05 0.3 0
0.05 0.25 0
0.1 0.25 0
0.05 0.3 0
0.1 0.3 0
0.1 0.25 0
0.15 0.25 0
0.1 0.3 0
0.15 0.3 0
0.15 0.25 0
0.2 0.25 0
0.15 0.3 0
0.2 0.3 0
0.2 0.25 0
0.25 0.25 0
0.2 0.3 0
0.25 0.3 0
0.25 0.25 0
0.3 0.25 0
0.25 0.3 0
0.3 0.3 0
0.3 0.25 0
0.35 0.25 0
0.3 0.3 0
0.35 0.3 0
0.35 0.25 0
0.4 0.25 0
0.35 0.3 0
0.4 0.3 0
0.4 0.25 0
0.45 0.25 0
0.4 0.3 0
0.45 0.3 0
0.45 0.25 0
0.5 0.25 0
0.45 0.3 0
0.5 0.3 0
0.5 0.25 0
0.55 0.25 0
0.5 0.3 0
0.55 0.3 0
0.55 0.25 0
0.6 0.25 0
0.55 0.3 0
0.6 0.3 0
0.6 0.25 0
0.65 0.25 0
0.6 0.3 0
0.65 0.3 0
0.65 0.25 0
0.7 0.25 0
0.65 0.3 0
0.7 0.3 0
0.7 0.25 0
0.75 0.25 0
0.7 0.3 0
0.75 0.3 0
0.75 0.25 0
0.8 0.25 0
0.75 0.3 0
0.8 0.3 0
0.8 0.25 0
0.85 0.25 0
0.8 0.3 0
0.85 0.3 0
0.85 0.25 0
0.9 0.25 0
0.85 0.3 0
0.9 0.3 0
0.9 0.25 0
0.95 0.25 0
0.9 0.3 0
0.95 0.3 0
0.95 0.25 0
1 0.25 0
0.95 0.3 0
1 0.3 0
1 0.25 0
1.05 0.25 0
1 0.3 0
1.05 0.3 0
1.05 0.25 0
1.1 0.25 0
1.05 0.3 0
1.1 0.3 0
1.1 0.25 0
1.15 0.25 0
1.1 0.3 0
1.15 0.3 0
1.15 0.25 0
1.2 0.25 0
1.15 0.3 0
1.2 0.3 0
1.2 0.25 0
1.25 0.25 0
1.2 0.3 0
1.25 0.3 0
1.25 0.25 0
1.3 0.25 0
1.25 0.3 0
1.3 0.3 0
1.3 0.25 0
1.35 0.25 0
1.3 0.3 0
1.35 0.3 0
1.35 0.25 0
1.4 0.25 0
1.35 0.3 0
1.4 0.3 0
1.4 0.25 0
1.45 0.25 0
1.4 0.3 0
1.45 0.3 0
1.45 0.25 0
1.5 0.25 0
[...]
POINT_DATA 3200
SCALARS x_displacement double 1
LOOKUP_TABLE default
0 -1.69034 0 -0.991844 -1.69034 -2.91204 -0.991844 -2.02166 -2.91204 -3.90276 -2.02166 -2.88046 -3.90276 -4.73318 -2.88046 -3.61888 -4.73318 -5.46725 -3.61888 -4.2736 -5.46725 -6.17516 -4.2736 -4.86747 -6.17516 -6.90243 -4.86747 -5.45152 -6.90243 -7.65276 -5.45152 -6.07891 -7.65276 -8.41417 -6.07891 -6.74701 -8.41417 -9.17614 -6.74701 -7.43981 -9.17614 -9.93141 -7.43981 -8.14367 -9.93141 -10.672 -8.14367 -8.85083 -10.672 -11.3934 -8.85083 -9.55896 -11.3934 -12.096 -9.55896 -10.2665 -12.096 -12.7828 -10.2665 -10.9713 -12.7828 -13.4576 -10.9713 -11.6704 -13.4576 -14.124 -11.6704 -12.361 -14.124 -14.7861 -12.361 -13.0403 -14.7861 -15.4497 -13.0403 -13.7049 -15.4497 -16.1226 -13.7049 -14.3511 -16.1226 -16.8133 -14.3511 -14.9747 -16.8133 -17.5251 -14.9747 -15.5691 -17.5251 -18.2475 -15.5691 -16.124 -18.2475 -18.947 -16.124 -16.6291 -18.947 -19.5591 -16.6291 -17.0758 -19.5591 -19.995 -17.0758 -17.4516 -19.995 -20.243 -17.4516 -17.7859 -20.243 -20.4345 -17.7859 -18.1634 -20.4345 -20.7907 -18.1634 -18.4378 -20.7907 -20.7809 -18.4378 -18.7772 -20.7809 -20.9877 -18.7772 -19.1578 -20.9877 -21.8813 -19.1578 -18.961 -21.8813 -22.2829 -18.961 -19.3173 -22.2829 -22.4814 -19.3173 -19.6157 -22.4814 -22.6109 -19.6157 -19.7898 -22.6109 -22.6778 -19.7898 -19.9704 -22.6778 -22.7213 -19.9704 -20.0785 -22.7213 -22.7282 -20.0785 -20.1313 -22.7282 -22.7166 -20.1313 -20.1526 -22.7166 -22.711 -20.1526 -20.157 0 -0.991844 0 -0.856755 -0.991844 -2.02166 -0.856755 -1.48907 -2.02166 -2.88046 -1.48907 -2.1048 -2.88046 -3.61888 -2.1048 -2.70446 -3.61888 -4.2736 -2.70446 -3.22391 -4.2736 -4.86747 -3.22391 -3.6437 -4.86747 -5.45152 -3.6437 -3.9883 -5.45152 -6.07891 -3.9883 -4.41212 -6.07891 -6.74701 -4.41212 -5.02442 -6.74701 -7.43981 -5.02442 -5.68842 -7.43981 -8.14367 -5.68842 -6.35614 -8.14367 -8.85083 -6.35614 -7.03748 -8.85083 -9.55896 -7.03748 -7.73454 -9.55896 -10.2665 -7.73454 -8.45237 -10.2665 -10.9713 -8.45237 -9.17979 -10.9713 -11.6704 -9.17979 -9.90691 -11.6704 -12.361 -9.90691 -10.6251 -12.361 -13.0403 -10.6251 -11.3258 -13.0403 -13.7049 -11.3258 -11.997 -13.7049 -14.3511 -11.997 -12.6258 -14.3511 -14.9747 -12.6258 -13.2019 -14.9747 -15.5691 -13.2019 -13.7099 -15.5691 -16.124 -13.7099 -14.1304 -16.124 -16.6291 -14.1304 -14.4661 -16.6291 -17.0758 -14.4661 -14.7562 -17.0758 -17.4516 -14.7562 -15.051 -17.4516 -17.7859 -15.051 -15.361 -17.7859 -18.1634 -15.361 -15.6584 -18.1634 -18.4378 -15.6584 -15.9517 -18.4378 -18.7772 -15.9517 -16.3191 -18.7772 -19.1578 -16.3191 -16.5547 -19.1578 -18.961 -16.5547 -16.7547 -18.961 -19.3173 -16.7547 -16.7583 -19.3173 -19.6157 -16.7583 -16.698 -19.6157 -19.7898 -16.698 -17.1706 -19.7898 -19.9704 -17.1706 -17.4067 -19.9704 -20.0785 -17.4067 -17.5267 -20.0785 -20.1313 -17.5267 -17.6126 -20.1313 -20.1526 -17.6126 -17.6371 -20.1526 -20.157 -17.6371 -17.6415 0 -0.856755 0 -0.629297 -0.856755 -1.48907 -0.629297 -0.916048 -1.48907 -2.1048 -0.916048 -1.51126 -2.1048 -2.70446 -1.51126 -1.9456 -2.70446 -3.22391 -1.9456 -2.34168 -3.22391 -3.6437 -2.34168 -2.70603 -3.6437 -3.9883 -2.70603 -3.02688 -3.9883 -4.41212 -3.02688 -3.38559 -4.41212 -5.02442 -3.38559 -3.70752 -5.02442 -5.68842 -3.70752 -4.10589 -5.68842 -6.35614 -4.10589 -4.64813 -6.35614 -7.03748 -4.64813 -5.21767 -7.03748 -7.73454 -5.21767 -5.93568 -7.73454 -8.45237 -5.93568 -6.67656 -8.45237 -9.17979 -6.67656 -7.43951 -9.17979 -9.90691 -7.43951 -8.20715 -9.90691 -10.6251 -8.20715 -8.96767 -10.6251 -11.3258 -8.96767 -9.71411 -11.3258 -11.997 -9.71411 -10.4419 -11.997 -12.6258 -10.4419 -11.1329 -12.6258 -13.2019 -11.1329 -11.7006 -13.2019 -13.7099 -11.7006 -12.0793 -13.7099 -14.1304 -12.0793 -12.2852 -14.1304 -14.4661 -12.2852 -12.3823 -14.4661 -14.7562 -12.3823 -12.4349 -14.7562 -15.051 -12.4349 -12.5259 -15.051 -15.361 -12.5259 -12.7994 -15.361 -15.6584 -12.7994 -13.1052 -15.6584 -15.9517 -13.1052 -13.4185 -15.9517 -16.3191 -13.4185 -13.7372 -16.3191 -16.5547 -13.7372 -14.055 -16.5547 -16.7547 -14.055 -14.324 -16.7547 -16.7583 -14.324 -14.6388 -16.7583 -16.698 -14.6388 -14.9632 -16.698 -17.1706 -14.9632 -14.8214 -17.1706 -17.4067 -14.8214 -14.9257 -17.4067 -17.5267 -14.9257 -15.1067 -17.5267 -17.6126 -15.1067 -15.179 -17.6126 -17.6371 -15.179 -15.2171 -17.6371 -17.6415 -15.2171 -15.2073 0 -0.629297 0 -0.037108 -0.629297 -0.916048 -0.037108 -0.544433 -0.916048 -1.51126 -0.544433 -0.909994 -1.51126 -1.9456 -0.909994 -1.16254 -1.9456 -2.34168 -1.16254 -1.61023 -2.34168 -2.70603 -1.61023 -1.96864 -2.70603 -3.02688 -1.96864 -2.32836 -3.02688 -3.38559 -2.32836 -2.69534 -3.38559 -3.70752 -2.69534 -3.067 -3.70752 -4.10589 -3.067 -3.53115 -4.10589 -4.64813 -3.53115 -3.88373 -4.64813 -5.21767 -3.88373 -4.3253 -5.21767 -5.93568 -4.3253 -5.05884 -5.93568 -6.67656 -5.05884 -5.34003 -6.67656 -7.43951 -5.34003 -5.9732 -7.43951 -8.20715 -5.9732 -7.06585 -8.20715 -8.96767 -7.06585 -7.97852 -8.96767 -9.71411 -7.97852 -8.81497 -9.71411 -10.4419 -8.81497 -9.5633 -10.4419 -11.1329 -9.5633 -10.0341 -11.1329 -11.7006 -10.0341 -10.2899 -11.7006 -12.0793 -10.2899 -10.3944 -12.0793 -12.2852 -10.3944 -10.4018 -12.2852 -12.3823 -10.4018 -10.3455 -12.3823 -12.4349 -10.3455 -10.2482 -12.4349 -12.5259 -10.2482 -10.1081 -12.5259 -12.7994 -10.1081 -10.1476 -12.7994 -13.1052 -10.1476 -10.454 -13.1052 -13.4185 -10.454 -10.8912 -13.4185 -13.7372 -10.8912 -11.2398 -13.7372 -14.055 -11.2398 -11.5667 -14.055 -14.324 -11.5667 -11.8971 -14.324 -14.6388 -11.8971 -12.2819 -14.6388 -14.9632 -12.2819 -12.5036 -14.9632 -14.8214 -12.5036 -12.6981 -14.8214 -14.9257 -12.6981 -12.8222 -14.9257 -15.1067 -12.8222 -12.5322 -15.1067 -15.179 -12.5322 -12.9155 -15.179 -15.2171 -12.9155 -12.943 -15.2171 -15.2073 -12.943 -12.856 0 -0.037108 0 -0.682471 -0.037108 -0.544433 -0.682471 -0.608846 -0.544433 -0.909994 -0.608846 -0.132028 -0.909994 -1.16254 -0.132028 -0.54043 -1.16254 -1.61023 -0.54043 -0.912259 -1.61023 -1.96864 -0.912259 -1.22594 -1.96864 -2.32836 -1.22594 -1.63564 -2.32836 -2.69534 -1.63564 -2.00302 -2.69534 -3.067 -2.00302 -2.39375 -3.067 -3.53115 -2.39375 -2.78712 -3.53115 -3.88373 -2.78712 -3.18815 -3.88373 -4.3253 -3.18815 -3.72281 -4.3253 -5.05884 -3.72281 -4.15953 -5.05884 -5.34003 -4.15953 -4.60296 -5.34003 -5.9732 -4.60296 -5.33949 -5.9732 -7.06585 -5.33949 -5.95122 -7.06585 -7.97852 -5.95122 -6.63524 -7.97852 -8.81497 -6.63524 -7.8222 -8.81497 -9.5633 -7.8222 -8.32024 -9.5633 -10.0341 -8.32024 -8.51307 -10.0341 -10.2899 -8.51307 -8.56381 -10.2899 -10.3944 -8.56381 -8.5421 -10.3944 -10.4018 -8.5421 -8.46912 -10.4018 -10.3455 -8.46912 -8.35835 -10.3455 -10.2482 -8.35835 -8.18165 -10.2482 -10.1081 -8.18165 -7.90298 -10.1081 -10.1476 -7.90298 -7.45287 -10.1476 -10.454 -7.45287 -7.91491 -10.454 -10.8912 -7.91491 -8.40879 -10.8912 -11.2398 -8.40879 -8.74075 -11.2398 -11.5667 -8.74075 -9.14128 -11.5667 -11.8971 -9.14128 -9.50325 -11.8971 -12.2819 -9.50325 -9.83606 -12.2819 -12.5036 -9.83606 -10.1459 -12.5036 -12.6981 -10.1459 -10.4443 -12.6981 -12.8222 -10.4443 -10.7686 -12.8222 -12.5322 -10.7686 -11.1035 -12.5322 -12.9155 -11.1035 -10.5646 -12.9155 -12.943 -10.5646 -10.8382 -12.943 -12.856 -10.8382 -10.9721 0 -0.682471 0 -0.093774 -0.682471 -0.608846 -0.093774 -0.206528 -0.608846 -0.132028 -0.206528 -0.370192 -0.132028 -0.54043 -0.370192 -0.313153 -0.54043 -0.912259 -0.313153 -0.21778 -0.912259 -1.22594 -0.21778 -0.596841 -1.22594 -1.63564 -0.596841 -0.911367 -1.63564 -2.00302 -0.911367 -1.28054 -2.00302 -2.39375 -1.28054 -1.69076 -2.39375 -2.78712 -1.69076 -2.06166 -2.78712 -3.18815 -2.06166 -2.4615 -3.18815 -3.72281 -2.4615 -2.86311 -3.72281 -4.15953 -2.86311 -3.26427 -4.15953 -4.60296 -3.26427 -3.77309 -4.60296 -5.33949 -3.77309 -4.28175 -5.33949 -5.95122 -4.28175 -4.71644 -5.95122 -6.63524 -4.71644 -5.27413 -6.63524 -7.8222 -5.27413 -6.01016 -7.8222 -8.32024 -6.01016 -6.7575 -8.32024 -8.51307 -6.7575 -6.74941 -8.51307 -8.56381 -6.74941 -6.70581 -8.56381 -8.5421 -6.70581 -6.64663 -8.5421 -8.46912 -6.64663 -6.56105 -8.46912 -8.35835 -6.56105 -6.42306 -8.35835 -8.18165 -6.42306 -6.20444 -8.18165 -7.90298 -6.20444 -5.80176 -7.90298 -7.45287 -5.80176 -5.34279 -7.45287 -7.91491 -5.34279 -5.53584 -7.91491 -8.40879 -5.53584 -5.92864 -8.40879 -8.74075 -5.92864 -6.32901 -8.74075 -9.14128 -6.32901 -6.71119 -9.14128 -9.50325 -6.71119 -7.13967 -9.50325 -9.83606 -7.13967 -7.48233 -9.83606 -10.1459 -7.48233 -7.81985 -10.1459 -10.4443 -7.81985 -8.17937 -10.4443 -10.7686 -8.17937 -8.59795 -10.7686 -11.1035 -8.59795 -8.8543 -11.1035 -10.5646 -8.8543 -9.28784 -10.5646 -10.8382 -9.28784 -9.86218 -10.8382 -10.9721 -9.86218 -9.48792 0 -0.093774 0 -0.0686844 -0.093774 -0.206528 -0.0686844 -0.143923 -0.206528 -0.370192 -0.143923 -0.192691 -0.370192 -0.313153 -0.192691 -0.272476 -0.313153 -0.21778 -0.272476 -0.39775 -0.21778 -0.596841 -0.39775 -0.0514524 -0.596841 -0.911367 -0.0514524 -0.235492 -0.911367 -1.28054 -0.235492 -0.645998 -1.28054 -1.69076 -0.645998 -0.934326 -1.69076 -2.06166 -0.934326 -1.29227 -2.06166 -2.4615 -1.29227 -1.67528 -2.4615 -2.86311 -1.67528 -2.01716 -2.86311 -3.26427 -2.01716 -2.38441 -3.26427 -3.77309 -2.38441 -2.7651 -3.77309 -4.28175 -2.7651 -3.13965 -4.28175 -4.71644 -3.13965 -3.55169 -4.71644 -5.27413 -3.55169 -4.01839 -5.27413 -6.01016 -4.01839 -4.45329 -6.01016 -6.7575 -4.45329 -4.93315 -6.7575 -6.74941 -4.93315 -4.91625 -6.74941 -6.70581 -4.91625 -4.85102 -6.70581 -6.64663 -4.85102 -4.77454 -6.64663 -6.56105 -4.77454 -4.68453 -6.56105 -6.42306 -4.68453 -4.55556 -6.42306 -6.20444 -4.55556 -4.31428 -6.20444 -5.80176 -4.31428 -3.93313 -5.80176 -5.34279 -3.93313 -3.46395 -5.34279 -5.53584 -3.46395 -3.16902 -5.53584 -5.92864 -3.16902 -3.72034 -5.92864 -6.32901 -3.72034 -3.87786 -6.32901 -6.71119 -3.87786 -4.42626 -6.71119 -7.13967 -4.42626 -4.77976 -7.13967 -7.48233 -4.77976 -5.07924 -7.48233 -7.81985 -5.07924 -5.58877 -7.81985 -8.17937 -5.58877 -5.98276 -8.17937 -8.59795 -5.98276 -6.31962 -8.59795 -8.8543 -6.31962 -6.66416 -8.8543 -9.28784 -6.66416 -7.13957 -9.28784 -9.86218 -7.13957 -7.43459 -9.86218 -9.48792 -7.43459 -7.75467 0 -0.0686844 0 -0.0482594 -0.0686844 -0.143923 -0.0482594 -0.0811706 -0.143923 -0.192691 -0.0811706 -0.115481 -0.192691 -0.272476 -0.115481 -0.137849 -0.272476 -0.39775 -0.137849 -0.167405 -0.39775 -0.0514524 -0.167405 -0.276954 -0.0514524 -0.235492 -0.276954 -0.510792 -0.235492 -0.645998 -0.510792 -0.0189851 -0.645998 -0.934326 -0.0189851 -0.213031 -0.934326 -1.29227 -0.213031 -0.580415 -1.29227 -1.67528 -0.580415 -0.839188 -1.67528 -2.01716 -0.839188 -1.14732 -2.01716 -2.38441 -1.14732 -1.46551 -2.38441 -2.7651 -1.46551 -1.74584 -2.7651 -3.13965 -1.74584 -2.04303 -3.13965 -3.55169 -2.04303 -2.35603 -3.55169 -4.01839 -2.35603 -2.65257 -4.01839 -4.45329 -2.65257 -2.93017 -4.45329 -4.93315 -2.93017 -3.13282 -4.93315 -4.91625 -3.13282 -3.11993 -4.91625 -4.85102 -3.11993 -3.05282 -4.85102 -4.77454 -3.05282 -2.99032 -4.77454 -4.68453 -2.99032 -2.90768 -4.68453 -4.55556 -2.90768 -2.78747 -4.55556 -4.31428 -2.78747 -2.60006 -4.31428 -3.93313 -2.60006 -2.294 -3.93313 -3.46395 -2.294 -1.91902 -3.46395 -3.16902 -1.91902 -1.56414 -3.16902 -3.72034 -1.56414 -1.17165 -3.72034 -3.87786 -1.17165 -1.41536 -3.87786 -4.42626 -1.41536 -2.53351 -4.42626 -4.77976 -2.53351 -2.3443 -4.77976 -5.07924 -2.3443 -2.90517 -5.07924 -5.58877 -2.90517 -3.47537 -5.58877 -5.98276 -3.47537 -3.81771 -5.98276 -6.31962 -3.81771 -4.10129 -6.31962 -6.66416 -4.10129 -4.40549 -6.66416 -7.13957 -4.40549 -4.7331 -7.13957 -7.43459 -4.7331 -5.04472 -7.43459 -7.75467 -5.04472 -5.25377 0 -0.0482594 0 -0.022446 -0.0482594 -0.0811706 -0.022446 -0.0382171 -0.0811706 -0.115481 -0.0382171 -0.0488838 -0.115481 -0.137849 -0.0488838 -0.0630247 -0.137849 -0.167405 -0.0630247 -0.0973793 -0.167405 -0.276954 -0.0973793 -0.0977968 -0.276954 -0.510792 -0.0977968 -0.0151233 -0.510792 -0.0189851 -0.0151233 0.0976989 -0.0189851 -0.213031 0.0976989 -0.249671 -0.213031 -0.580415 -0.249671 0.153403 -0.580415 -0.839188 0.153403 -0.0571521 -0.839188 -1.14732 -0.0571521 -0.358864 -1.14732 -1.46551 -0.358864 -0.556204 -1.46551 -1.74584 -0.556204 -0.762029 -1.74584 -2.04303 -0.762029 -0.973619 -2.04303 -2.35603 -0.973619 -1.1534 -2.35603 -2.65257 -1.1534 -1.30698 -2.65257 -2.93017 -1.30698 -1.42076 -2.93017 -3.13282 -1.42076 -1.46573 -3.13282 -3.11993 -1.46573 -1.44764 -3.11993 -3.05282 -1.44764 -1.40561 -3.05282 -2.99032 -1.40561 -1.36005 -2.99032 -2.90768 -1.36005 -1.32093 -2.90768 -2.78747 -1.32093 -1.27881 -2.78747 -2.60006 -1.27881 -1.2214 -2.60006 -2.294 -1.2214 -1.05472 -2.294 -1.91902 -1.05472 -0.754985 -1.91902 -1.56414 -0.754985 -0.381403 -1.56414 -1.17165 -0.381403 -0.0813412 -1.17165 -1.41536 -0.0813412 0.299418 -1.41536 -2.53351 0.299418 -0.0546839 -2.53351 -2.3443 -0.0546839 -1.3871 -2.3443 -2.90517 -1.3871 -1.38624 -2.90517 -3.47537 -1.38624 -1.48462 -3.47537 -3.81771 -1.48462 -1.65808 -3.81771 -4.10129 -1.65808 -1.84865 -4.10129 -4.40549 -1.84865 -2.13415 -4.40549 -4.7331 -2.13415 -2.37084 -4.7331 -5.04472 -2.37084 -2.62169 -5.04472 -5.25377 -2.62169 -2.64598 0 -0.022446 0 -5.12847e-11 -0.022446 -0.0382171 -5.12847e-11 -1.28541e-11 -0.0382171 -0.0488838 -1.28541e-11 3.35177e-11 -0.0488838 -0.0630247 3.35177e-11 -7.59774e-11 -0.0630247 -0.0973793 -7.59774e-11 -2.96388e-11 -0.0973793 -0.0977968 -2.96388e-11 -9.3007e-12 -0.0977968 -0.0151233 -9.3007e-12 1.904e-11 -0.0151233 0.0976989 1.904e-11 2.22202e-11 0.0976989 -0.249671 2.22202e-11 2.11108e-12 -0.249671 0.153403 2.11108e-12 6.63059e-12 0.153403 -0.0571521 6.63059e-12 -1.17177e-11 -0.0571521 -0.358864 -1.17177e-11 -7.12843e-12 -0.358864 -0.556204 -7.12843e-12 -2.68641e-12 -0.556204 -0.762029 -2.68641e-12 -1.7552e-12 -0.762029 -0.973619 -1.7552e-12 -1.05171e-12 -0.973619 -1.1534 -1.05171e-12 -1.99221e-13 -1.1534 -1.30698 -1.99221e-13 4.49563e-13 -1.30698 -1.42076 4.49563e-13 8.05309e-13 -1.42076 -1.46573 8.05309e-13 1.12878e-12 -1.46573 -1.44764 1.12878e-12 8.12194e-13 -1.44764 -1.40561 8.12194e-13 3.08079e-13 -1.40561 -1.36005 3.08079e-13 5.12568e-13 -1.36005 -1.32093 5.12568e-13 5.82975e-13 -1.32093 -1.27881 5.82975e-13 -4.7127e-12 -1.27881 -1.2214 -4.7127e-12 4.45083e-11 -1.2214 -1.05472 4.45083e-11 7.56255e-11 -1.05472 -0.754985 7.56255e-11 -2.05716e-11 -0.754985 -0.381403 -2.05716e-11 -2.98149e-10 -0.381403 -0.0813412 -2.98149e-10 -6.3342e-10 -0.0813412 0.299418 -6.3342e-10 2.15646e-10 0.299418 -0.0546839 2.15646e-10 -2.0157e-09 -0.0546839 -1.3871 -2.0157e-09 -3.85992e-10 -1.3871 -1.38624 -3.85992e-10 5.53289e-09 -1.38624 -1.48462 5.53289e-09 -2.02547e-11 -1.48462 -1.65808 -2.02547e-11 1.34718e-11 -1.65808 -1.84865 1.34718e-11 9.52538e-12 -1.84865 -2.13415 9.52538e-12 8.37e-12 -2.13415 -2.37084 8.37e-12 7.41802e-12 -2.37084 -2.62169 7.41802e-12 6.27014e-12 -2.62169 -2.64598 6.27014e-12 5.73764e-12 0 -5.12847e-11 0 0.022446 -5.12847e-11 -1.28541e-11 0.022446 0.0382171 -1.28541e-11 3.35177e-11 0.0382171 0.0488838 3.35177e-11 -7.59774e-11 0.0488838 0.0630247 -7.59774e-11 -2.96388e-11 0.0630247 0.0973793 -2.96388e-11 -9.3007e-12 0.0973793 0.0977968 -9.3007e-12 1.904e-11 0.0977968 0.0151233 1.904e-11 2.22202e-11 0.0151233 -0.0976989 2.22202e-11 2.11108e-12 -0.0976989 0.249671 2.11108e-12 6.63059e-12 0.249671 -0.153403 6.63059e-12 -1.17177e-11 -0.153403 0.0571521 -1.17177e-11 -7.12843e-12 0.0571521 0.358864 -7.12843e-12 -2.68641e-12 0.358864 0.556204 -2.68641e-12 -1.7552e-12 0.556204 0.762029 -1.7552e-12 -1.05171e-12 0.762029 0.973619 -1.05171e-12 -1.99221e-13 0.973619 1.1534 -1.99221e-13 4.49563e-13 1.1534 1.30698 4.49563e-13 8.05309e-13 1.30698 1.42076 8.05309e-13 1.12878e-12 1.42076 1.46573 1.12878e-12 8.12194e-13 1.46573 1.44764 8.12194e-13 3.08079e-13 1.44764 1.40561 3.08079e-13 5.12568e-13 1.40561 1.36005 5.12568e-13 5.82975e-13 1.36005 1.32093 5.82975e-13 -4.7127e-12 1.32093 1.27881 -4.7127e-12 4.45083e-11 1.27881 1.2214 4.45083e-11 7.56255e-11 1.2214 1.05472 7.56255e-11 -2.05716e-11 1.05472 0.754985 -2.05716e-11 -2.98149e-10 0.754985 0.381403 -2.98149e-10 -6.3342e-10 0.381403 0.0813412 -6.3342e-10 2.15646e-10 0.0813412 -0.299418 2.15646e-10 -2.0157e-09 -0.299418 0.0546839 -2.0157e-09 -3.85992e-10 0.0546839 1.3871 -3.85992e-10 5.53289e-09 1.3871 1.38624 5.53289e-09 -2.02547e-11 1.38624 1.48462 -2.02547e-11 1.34718e-11 1.48462 1.65808 1.34718e-11 9.52538e-12 1.65808 1.84865 9.52538e-12 8.37e-12 1.84865 2.13415 8.37e-12 7.41802e-12 2.13415 2.37084 7.41802e-12 6.27014e-12 2.37084 2.62169 6.27014e-12 5.73764e-12 2.62169 2.64598 0 0.022446 0 0.0482594 0.022446 0.0382171 0.0482594 0.0811706 0.0382171 0.0488838 0.0811706 0.115481 0.0488838 0.0630247 0.115481 0.137849 0.0630247 0.0973793 0.137849 0.167405 0.0973793 0.0977968 0.167405 0.276954 0.0977968 0.0151233 0.276954 0.510792 0.0151233 -0.0976989 0.510792 0.0189851 -0.0976989 0.249671 0.0189851 0.213031 0.249671 -0.153403 0.213031 0.580415 -0.153403 0.0571521 0.580415 0.839188 0.0571521 0.358864 0.839188 1.14732 0.358864 0.556204 1.14732 1.46551 0.556204 0.762029 1.46551 1.74584 0.762029 0.973619 1.74584 2.04303 0.973619 1.1534 2.04303 2.35603 1.1534 1.30698 2.35603 2.65257 1.30698 1.42076 2.65257 2.93017 1.42076 1.46573 2.93017 3.13282 1.46573 1.44764 3.13282 3.11993 1.44764 1.40561 3.11993 3.05282 1.40561 1.36005 3.05282 2.99032 1.36005 1.32093 2.99032 2.90768 1.32093 1.27881 2.90768 2.78747 1.27881 1.2214 2.78747 2.60006 1.2214 1.05472 2.60006 2.294 1.05472 0.754985 2.294 1.91902 0.754985 0.381403 1.91902 1.56414 0.381403 0.0813412 1.56414 1.17165 0.0813412 -0.299418 1.17165 1.41536 -0.299418 0.0546839 1.41536 2.53351 0.0546839 1.3871 2.53351 2.3443 1.3871 1.38624 2.3443 2.90517 1.38624 1.48462 2.90517 3.47537 1.48462 1.65808 3.47537 3.81771 1.65808 1.84865 3.81771 4.10129 1.84865 2.13415 4.10129 4.40549 2.13415 2.37084 4.40549 4.7331 2.37084 2.62169 4.7331 5.04472 2.62169 2.64598 5.04472 5.25377 0 0.0482594 0 0.0686844 0.0482594 0.0811706 0.0686844 0.143923 0.0811706 0.115481 0.143923 0.192691 0.115481 0.137849 0.192691 0.272476 0.137849 0.167405 0.272476 0.39775 0.167405 0.276954 0.39775 0.0514524 0.276954 0.510792 0.0514524 0.235492 0.510792 0.0189851 0.235492 0.645998 0.0189851 0.213031 0.645998 0.934326 0.213031 0.580415 0.934326 1.29227 0.580415 0.839188 1.29227 1.67528 0.839188 1.14732 1.67528 2.01716 1.14732 1.46551 2.01716 2.38441 1.46551 1.74584 2.38441 2.7651 1.74584 2.04303 2.7651 3.13965 2.04303 2.35603 3.13965 3.55169 2.35603 2.65257 3.55169 4.01839 2.65257 2.93017 4.01839 4.45329 2.93017 3.13282 4.45329 4.93315 3.13282 3.11993 4.93315 4.91625 3.11993 3.05282 4.91625 4.85102 3.05282 2.99032 4.85102 4.77454 2.99032 2.90768 4.77454 4.68453 2.90768 2.78747 4.68453 4.55556 2.78747 2.60006 4.55556 4.31428 2.60006 2.294 4.31428 3.93313 2.294 1.91902 3.93313 3.46395 1.91902 1.56414 3.46395 3.16902 1.56414 1.17165 3.16902 3.72034 1.17165 1.41536 3.72034 3.87786 1.41536 2.53351 3.87786 4.42626 2.53351 2.3443 4.42626 4.77976 2.3443 2.90517 4.77976 5.07924 2.90517 3.47537 5.07924 5.58877 3.47537 3.81771 5.58877 5.98276 3.81771 4.10129 5.98276 6.31962 4.10129 4.40549 6.31962 6.66416 4.40549 4.7331 6.66416 7.13957 4.7331 5.04472 7.13957 7.43459 5.04472 5.25377 7.43459 7.75467 0 0.0686844 0 0.093774 0.0686844 0.143923 0.093774 0.206528 0.143923 0.192691 0.206528 0.370192 0.192691 0.272476 0.370192 0.313153 0.272476 0.39775 0.313153 0.21778 0.39775 0.0514524 0.21778 0.596841 0.0514524 0.235492 0.596841 0.911367 0.235492 0.645998 0.911367 1.28054 0.645998 0.934326 1.28054 1.69076 0.934326 1.29227 1.69076 2.06166 1.29227 1.67528 2.06166 2.4615 1.67528 2.01716 2.4615 2.86311 2.01716 2.38441 2.86311 3.26427 2.38441 2.7651 3.26427 3.77309 2.7651 3.13965 3.77309 4.28175 3.13965 3.55169 4.28175 4.71644 3.55169 4.01839 4.71644 5.27413 4.01839 4.45329 5.27413 6.01016 4.45329 4.93315 6.01016 6.7575 4.93315 4.91625 6.7575 6.74941 4.91625 4.85102 6.74941 6.70581 4.85102 4.77454 6.70581 6.64663 4.77454 4.68453 6.64663 6.56105 4.68453 4.55556 6.56105 6.42306 4.55556 4.31428 6.42306 6.20444 4.31428 3.93313 6.20444 5.80176 3.93313 3.46395 5.80176 5.34279 3.46395 3.16902 5.34279 5.53584 3.16902 3.72034 5.53584 5.92864 3.72034 3.87786 5.92864 6.32901 3.87786 4.42626