# vtk DataFile Version 3.0
#This file was generated by the deal.II library on 2015/9/1 at 17:12:53
ASCII
DATASET UNSTRUCTURED_GRID

POINTS 3200 double
0 0 0
0.05 0 0
0 0.05 0
0.05 0.05 0
0.05 0 0
0.1 0 0
0.05 0.05 0
0.1 0.05 0
0.1 0 0
0.15 0 0
0.1 0.05 0
0.15 0.05 0
0.15 0 0
0.2 0 0
0.15 0.05 0
0.2 0.05 0
0.2 0 0
0.25 0 0
0.2 0.05 0
0.25 0.05 0
0.25 0 0
0.3 0 0
0.25 0.05 0
0.3 0.05 0
0.3 0 0
0.35 0 0
0.3 0.05 0
0.35 0.05 0
0.35 0 0
0.4 0 0
0.35 0.05 0
0.4 0.05 0
0.4 0 0
0.45 0 0
0.4 0.05 0
0.45 0.05 0
0.45 0 0
0.5 0 0
0.45 0.05 0
0.5 0.05 0
0.5 0 0
0.55 0 0
0.5 0.05 0
0.55 0.05 0
0.55 0 0
0.6 0 0
0.55 0.05 0
0.6 0.05 0
0.6 0 0
0.65 0 0
0.6 0.05 0
0.65 0.05 0
0.65 0 0
0.7 0 0
0.65 0.05 0
0.7 0.05 0
0.7 0 0
0.75 0 0
0.7 0.05 0
0.75 0.05 0
0.75 0 0
0.8 0 0
0.75 0.05 0
0.8 0.05 0
0.8 0 0
0.85 0 0
0.8 0.05 0
0.85 0.05 0
0.85 0 0
0.9 0 0
0.85 0.05 0
0.9 0.05 0
0.9 0 0
0.95 0 0
0.9 0.05 0
0.95 0.05 0
0.95 0 0
1 0 0
0.95 0.05 0
1 0.05 0
1 0 0
1.05 0 0
1 0.05 0
1.05 0.05 0
1.05 0 0
1.1 0 0
1.05 0.05 0
1.1 0.05 0
1.1 0 0
1.15 0 0
1.1 0.05 0
1.15 0.05 0
1.15 0 0
1.2 0 0
1.15 0.05 0
1.2 0.05 0
1.2 0 0
1.25 0 0
1.2 0.05 0
1.25 0.05 0
1.25 0 0
1.3 0 0
1.25 0.05 0
1.3 0.05 0
1.3 0 0
1.35 0 0
1.3 0.05 0
1.35 0.05 0
1.35 0 0
1.4 0 0
1.35 0.05 0
1.4 0.05 0
1.4 0 0
1.45 0 0
1.4 0.05 0
1.45 0.05 0
1.45 0 0
1.5 0 0
1.45 0.05 0
1.5 0.05 0
1.5 0 0
1.55 0 0
1.5 0.05 0
1.55 0.05 0
1.55 0 0
1.6 0 0
1.55 0.05 0
1.6 0.05 0
1.6 0 0
1.65 0 0
1.6 0.05 0
1.65 0.05 0
1.65 0 0
1.7 0 0
1.65 0.05 0
1.7 0.05 0
1.7 0 0
1.75 0 0
1.7 0.05 0
1.75 0.05 0
1.75 0 0
1.8 0 0
1.75 0.05 0
1.8 0.05 0
1.8 0 0
1.85 0 0
1.8 0.05 0
1.85 0.05 0
1.85 0 0
1.9 0 0
1.85 0.05 0
1.9 0.05 0
1.9 0 0
1.95 0 0
1.9 0.05 0
1.95 0.05 0
1.95 0 0
2 0 0
1.95 0.05 0
2 0.05 0
0 0.05 0
0.05 0.05 0
0 0.1 0
0.05 0.1 0
0.05 0.05 0
0.1 0.05 0
0.05 0.1 0
0.1 0.1 0
0.1 0.05 0
0.15 0.05 0
0.1 0.1 0
0.15 0.1 0
0.15 0.05 0
0.2 0.05 0
0.15 0.1 0
0.2 0.1 0
0.2 0.05 0
0.25 0.05 0
0.2 0.1 0
0.25 0.1 0
0.25 0.05 0
0.3 0.05 0
0.25 0.1 0
0.3 0.1 0
0.3 0.05 0
0.35 0.05 0
0.3 0.1 0
0.35 0.1 0
0.35 0.05 0
0.4 0.05 0
0.35 0.1 0
0.4 0.1 0
0.4 0.05 0
0.45 0.05 0
0.4 0.1 0
0.45 0.1 0
0.45 0.05 0
0.5 0.05 0
0.45 0.1 0
0.5 0.1 0
0.5 0.05 0
0.55 0.05 0
0.5 0.1 0
0.55 0.1 0
0.55 0.05 0
0.6 0.05 0
0.55 0.1 0
0.6 0.1 0
0.6 0.05 0
0.65 0.05 0
0.6 0.1 0
0.65 0.1 0
0.65 0.05 0
0.7 0.05 0
0.65 0.1 0
0.7 0.1 0
0.7 0.05 0
0.75 0.05 0
0.7 0.1 0
0.75 0.1 0
0.75 0.05 0
0.8 0.05 0
0.75 0.1 0
0.8 0.1 0
0.8 0.05 0
0.85 0.05 0
0.8 0.1 0
0.85 0.1 0
0.85 0.05 0
0.9 0.05 0
0.85 0.1 0
0.9 0.1 0
0.9 0.05 0
0.95 0.05 0
0.9 0.1 0
0.95 0.1 0
0.95 0.05 0
1 0.05 0
0.95 0.1 0
1 0.1 0
1 0.05 0
1.05 0.05 0
1 0.1 0
1.05 0.1 0
1.05 0.05 0
1.1 0.05 0
1.05 0.1 0
1.1 0.1 0
1.1 0.05 0
1.15 0.05 0
1.1 0.1 0
1.15 0.1 0
1.15 0.05 0
1.2 0.05 0
1.15 0.1 0
1.2 0.1 0
1.2 0.05 0
1.25 0.05 0
1.2 0.1 0
1.25 0.1 0
1.25 0.05 0
1.3 0.05 0
1.25 0.1 0
1.3 0.1 0
1.3 0.05 0
1.35 0.05 0
1.3 0.1 0
1.35 0.1 0
1.35 0.05 0
1.4 0.05 0
1.35 0.1 0
1.4 0.1 0
1.4 0.05 0
1.45 0.05 0
1.4 0.1 0
1.45 0.1 0
1.45 0.05 0
1.5 0.05 0
1.45 0.1 0
1.5 0.1 0
1.5 0.05 0
1.55 0.05 0
1.5 0.1 0
1.55 0.1 0
1.55 0.05 0
1.6 0.05 0
1.55 0.1 0
1.6 0.1 0
1.6 0.05 0
1.65 0.05 0
1.6 0.1 0
1.65 0.1 0
1.65 0.05 0
1.7 0.05 0
1.65 0.1 0
1.7 0.1 0
1.7 0.05 0
1.75 0.05 0
1.7 0.1 0
1.75 0.1 0
1.75 0.05 0
1.8 0.05 0
1.75 0.1 0
1.8 0.1 0
1.8 0.05 0
1.85 0.05 0
1.8 0.1 0
1.85 0.1 0
1.85 0.05 0
1.9 0.05 0
1.85 0.1 0
1.9 0.1 0
1.9 0.05 0
1.95 0.05 0
1.9 0.1 0
1.95 0.1 0
1.95 0.05 0
2 0.05 0
1.95 0.1 0
2 0.1 0
0 0.1 0
0.05 0.1 0
0 0.15 0
0.05 0.15 0
0.05 0.1 0
0.1 0.1 0
0.05 0.15 0
0.1 0.15 0
0.1 0.1 0
0.15 0.1 0
0.1 0.15 0
0.15 0.15 0
0.15 0.1 0
0.2 0.1 0
0.15 0.15 0
0.2 0.15 0
0.2 0.1 0
0.25 0.1 0
0.2 0.15 0
0.25 0.15 0
0.25 0.1 0
0.3 0.1 0
0.25 0.15 0
0.3 0.15 0
0.3 0.1 0
0.35 0.1 0
0.3 0.15 0
0.35 0.15 0
0.35 0.1 0
0.4 0.1 0
0.35 0.15 0
0.4 0.15 0
0.4 0.1 0
0.45 0.1 0
0.4 0.15 0
0.45 0.15 0
0.45 0.1 0
0.5 0.1 0
0.45 0.15 0
0.5 0.15 0
0.5 0.1 0
0.55 0.1 0
0.5 0.15 0
0.55 0.15 0
0.55 0.1 0
0.6 0.1 0
0.55 0.15 0
0.6 0.15 0
0.6 0.1 0
0.65 0.1 0
0.6 0.15 0
0.65 0.15 0
0.65 0.1 0
0.7 0.1 0
0.65 0.15 0
0.7 0.15 0
0.7 0.1 0
0.75 0.1 0
0.7 0.15 0
0.75 0.15 0
0.75 0.1 0
0.8 0.1 0
0.75 0.15 0
0.8 0.15 0
0.8 0.1 0
0.85 0.1 0
0.8 0.15 0
0.85 0.15 0
0.85 0.1 0
0.9 0.1 0
0.85 0.15 0
0.9 0.15 0
0.9 0.1 0
0.95 0.1 0
0.9 0.15 0
0.95 0.15 0
0.95 0.1 0
1 0.1 0
0.95 0.15 0
1 0.15 0
1 0.1 0
1.05 0.1 0
1 0.15 0
1.05 0.15 0
1.05 0.1 0
1.1 0.1 0
1.05 0.15 0
1.1 0.15 0
1.1 0.1 0
1.15 0.1 0
1.1 0.15 0
1.15 0.15 0
1.15 0.1 0
1.2 0.1 0
1.15 0.15 0
1.2 0.15 0
1.2 0.1 0
1.25 0.1 0
1.2 0.15 0
1.25 0.15 0
1.25 0.1 0
1.3 0.1 0
1.25 0.15 0
1.3 0.15 0
1.3 0.1 0
1.35 0.1 0
1.3 0.15 0
1.35 0.15 0
1.35 0.1 0
1.4 0.1 0
1.35 0.15 0
1.4 0.15 0
1.4 0.1 0
1.45 0.1 0
1.4 0.15 0
1.45 0.15 0
1.45 0.1 0
1.5 0.1 0
1.45 0.15 0
1.5 0.15 0
1.5 0.1 0
1.55 0.1 0
1.5 0.15 0
1.55 0.15 0
1.55 0.1 0
1.6 0.1 0
1.55 0.15 0
1.6 0.15 0
1.6 0.1 0
1.65 0.1 0
1.6 0.15 0
1.65 0.15 0
1.65 0.1 0
1.7 0.1 0
1.65 0.15 0
1.7 0.15 0
1.7 0.1 0
1.75 0.1 0
1.7 0.15 0
1.75 0.15 0
1.75 0.1 0
1.8 0.1 0
1.75 0.15 0
1.8 0.15 0
1.8 0.1 0
1.85 0.1 0
1.8 0.15 0
1.85 0.15 0
1.85 0.1 0
1.9 0.1 0
1.85 0.15 0
1.9 0.15 0
1.9 0.1 0
1.95 0.1 0
1.9 0.15 0
1.95 0.15 0
1.95 0.1 0
2 0.1 0
1.95 0.15 0
2 0.15 0
0 0.15 0
0.05 0.15 0
0 0.2 0
0.05 0.2 0
0.05 0.15 0
0.1 0.15 0
0.05 0.2 0
0.1 0.2 0
0.1 0.15 0
0.15 0.15 0
0.1 0.2 0
0.15 0.2 0
0.15 0.15 0
0.2 0.15 0
0.15 0.2 0
0.2 0.2 0
0.2 0.15 0
0.25 0.15 0
0.2 0.2 0
0.25 0.2 0
0.25 0.15 0
0.3 0.15 0
0.25 0.2 0
0.3 0.2 0
0.3 0.15 0
0.35 0.15 0
0.3 0.2 0
0.35 0.2 0
0.35 0.15 0
0.4 0.15 0
0.35 0.2 0
0.4 0.2 0
0.4 0.15 0
0.45 0.15 0
0.4 0.2 0
0.45 0.2 0
0.45 0.15 0
0.5 0.15 0
0.45 0.2 0
0.5 0.2 0
0.5 0.15 0
0.55 0.15 0
0.5 0.2 0
0.55 0.2 0
0.55 0.15 0
0.6 0.15 0
0.55 0.2 0
0.6 0.2 0
0.6 0.15 0
0.65 0.15 0
0.6 0.2 0
0.65 0.2 0
0.65 0.15 0
0.7 0.15 0
0.65 0.2 0
0.7 0.2 0
0.7 0.15 0
0.75 0.15 0
0.7 0.2 0
0.75 0.2 0
0.75 0.15 0
0.8 0.15 0
0.75 0.2 0
0.8 0.2 0
0.8 0.15 0
0.85 0.15 0
0.8 0.2 0
0.85 0.2 0
0.85 0.15 0
0.9 0.15 0
0.85 0.2 0
0.9 0.2 0
0.9 0.15 0
0.95 0.15 0
0.9 0.2 0
0.95 0.2 0
0.95 0.15 0
1 0.15 0
0.95 0.2 0
1 0.2 0
1 0.15 0
1.05 0.15 0
1 0.2 0
1.05 0.2 0
1.05 0.15 0
1.1 0.15 0
1.05 0.2 0
1.1 0.2 0
1.1 0.15 0
1.15 0.15 0
1.1 0.2 0
1.15 0.2 0
1.15 0.15 0
1.2 0.15 0
1.15 0.2 0
1.2 0.2 0
1.2 0.15 0
1.25 0.15 0
1.2 0.2 0
1.25 0.2 0
1.25 0.15 0
1.3 0.15 0
1.25 0.2 0
1.3 0.2 0
1.3 0.15 0
1.35 0.15 0
1.3 0.2 0
1.35 0.2 0
1.35 0.15 0
1.4 0.15 0
1.35 0.2 0
1.4 0.2 0
1.4 0.15 0
1.45 0.15 0
1.4 0.2 0
1.45 0.2 0
1.45 0.15 0
1.5 0.15 0
1.45 0.2 0
1.5 0.2 0
1.5 0.15 0
1.55 0.15 0
1.5 0.2 0
1.55 0.2 0
1.55 0.15 0
1.6 0.15 0
1.55 0.2 0
1.6 0.2 0
1.6 0.15 0
1.65 0.15 0
1.6 0.2 0
1.65 0.2 0
1.65 0.15 0
1.7 0.15 0
1.65 0.2 0
1.7 0.2 0
1.7 0.15 0
1.75 0.15 0
1.7 0.2 0
1.75 0.2 0
1.75 0.15 0
1.8 0.15 0
1.75 0.2 0
1.8 0.2 0
1.8 0.15 0
1.85 0.15 0
1.8 0.2 0
1.85 0.2 0
1.85 0.15 0
1.9 0.15 0
1.85 0.2 0
1.9 0.2 0
1.9 0.15 0
1.95 0.15 0
1.9 0.2 0
1.95 0.2 0
1.95 0.15 0
2 0.15 0
1.95 0.2 0
2 0.2 0
0 0.2 0
0.05 0.2 0
0 0.25 0
0.05 0.25 0
0.05 0.2 0
0.1 0.2 0
0.05 0.25 0
0.1 0.25 0
0.1 0.2 0
0.15 0.2 0
0.1 0.25 0
0.15 0.25 0
0.15 0.2 0
0.2 0.2 0
0.15 0.25 0
0.2 0.25 0
0.2 0.2 0
0.25 0.2 0
0.2 0.25 0
0.25 0.25 0
0.25 0.2 0
0.3 0.2 0
0.25 0.25 0
0.3 0.25 0
0.3 0.2 0
0.35 0.2 0
0.3 0.25 0
0.35 0.25 0
0.35 0.2 0
0.4 0.2 0
0.35 0.25 0
0.4 0.25 0
0.4 0.2 0
0.45 0.2 0
0.4 0.25 0
0.45 0.25 0
0.45 0.2 0
0.5 0.2 0
0.45 0.25 0
0.5 0.25 0
0.5 0.2 0
0.55 0.2 0
0.5 0.25 0
0.55 0.25 0
0.55 0.2 0
0.6 0.2 0
0.55 0.25 0
0.6 0.25 0
0.6 0.2 0
0.65 0.2 0
0.6 0.25 0
0.65 0.25 0
0.65 0.2 0
0.7 0.2 0
0.65 0.25 0
0.7 0.25 0
0.7 0.2 0
0.75 0.2 0
0.7 0.25 0
0.75 0.25 0
0.75 0.2 0
0.8 0.2 0
0.75 0.25 0
0.8 0.25 0
0.8 0.2 0
0.85 0.2 0
0.8 0.25 0
0.85 0.25 0
0.85 0.2 0
0.9 0.2 0
0.85 0.25 0
0.9 0.25 0
0.9 0.2 0
0.95 0.2 0
0.9 0.25 0
0.95 0.25 0
0.95 0.2 0
1 0.2 0
0.95 0.25 0
1 0.25 0
1 0.2 0
1.05 0.2 0
1 0.25 0
1.05 0.25 0
1.05 0.2 0
1.1 0.2 0
1.05 0.25 0
1.1 0.25 0
1.1 0.2 0
1.15 0.2 0
1.1 0.25 0
1.15 0.25 0
1.15 0.2 0
1.2 0.2 0
1.15 0.25 0
1.2 0.25 0
1.2 0.2 0
1.25 0.2 0
1.2 0.25 0
1.25 0.25 0
1.25 0.2 0
1.3 0.2 0
1.25 0.25 0
1.3 0.25 0
1.3 0.2 0
1.35 0.2 0
1.3 0.25 0
1.35 0.25 0
1.35 0.2 0
1.4 0.2 0
1.35 0.25 0
1.4 0.25 0
1.4 0.2 0
1.45 0.2 0
1.4 0.25 0
1.45 0.25 0
1.45 0.2 0
1.5 0.2 0
1.45 0.25 0
1.5 0.25 0
1.5 0.2 0
1.55 0.2 0
1.5 0.25 0
1.55 0.25 0
1.55 0.2 0
1.6 0.2 0
1.55 0.25 0
1.6 0.25 0
1.6 0.2 0
1.65 0.2 0
1.6 0.25 0
1.65 0.25 0
1.65 0.2 0
1.7 0.2 0
1.65 0.25 0
1.7 0.25 0
1.7 0.2 0
1.75 0.2 0
1.7 0.25 0
1.75 0.25 0
1.75 0.2 0
1.8 0.2 0
1.75 0.25 0
1.8 0.25 0
1.8 0.2 0
1.85 0.2 0
1.8 0.25 0
1.85 0.25 0
1.85 0.2 0
1.9 0.2 0
1.85 0.25 0
1.9 0.25 0
1.9 0.2 0
1.95 0.2 0
1.9 0.25 0
1.95 0.25 0
1.95 0.2 0
2 0.2 0
1.95 0.25 0
2 0.25 0
0 0.25 0
0.05 0.25 0
0 0.3 0
0.05 0.3 0
0.05 0.25 0
0.1 0.25 0
0.05 0.3 0
0.1 0.3 0
0.1 0.25 0
0.15 0.25 0
0.1 0.3 0
0.15 0.3 0
0.15 0.25 0
0.2 0.25 0
0.15 0.3 0
0.2 0.3 0
0.2 0.25 0
0.25 0.25 0
0.2 0.3 0
0.25 0.3 0
0.25 0.25 0
0.3 0.25 0
0.25 0.3 0
0.3 0.3 0
0.3 0.25 0
0.35 0.25 0
0.3 0.3 0
0.35 0.3 0
0.35 0.25 0
0.4 0.25 0
0.35 0.3 0
0.4 0.3 0
0.4 0.25 0
0.45 0.25 0
0.4 0.3 0
0.45 0.3 0
0.45 0.25 0
0.5 0.25 0
0.45 0.3 0
0.5 0.3 0
0.5 0.25 0
0.55 0.25 0
0.5 0.3 0
0.55 0.3 0
0.55 0.25 0
0.6 0.25 0
0.55 0.3 0
0.6 0.3 0
0.6 0.25 0
0.65 0.25 0
0.6 0.3 0
0.65 0.3 0
0.65 0.25 0
0.7 0.25 0
0.65 0.3 0
0.7 0.3 0
0.7 0.25 0
0.75 0.25 0
0.7 0.3 0
0.75 0.3 0
0.75 0.25 0
0.8 0.25 0
0.75 0.3 0
0.8 0.3 0
0.8 0.25 0
0.85 0.25 0
0.8 0.3 0
0.85 0.3 0
0.85 0.25 0
0.9 0.25 0
0.85 0.3 0
0.9 0.3 0
0.9 0.25 0
0.95 0.25 0
0.9 0.3 0
0.95 0.3 0
0.95 0.25 0
1 0.25 0
0.95 0.3 0
1 0.3 0
1 0.25 0
1.05 0.25 0
1 0.3 0
1.05 0.3 0
1.05 0.25 0
1.1 0.25 0
1.05 0.3 0
1.1 0.3 0
1.1 0.25 0
1.15 0.25 0
1.1 0.3 0
1.15 0.3 0
1.15 0.25 0
1.2 0.25 0
1.15 0.3 0
1.2 0.3 0
1.2 0.25 0
1.25 0.25 0
1.2 0.3 0
1.25 0.3 0
1.25 0.25 0
1.3 0.25 0
1.25 0.3 0
1.3 0.3 0
1.3 0.25 0
1.35 0.25 0
1.3 0.3 0
1.35 0.3 0
1.35 0.25 0
1.4 0.25 0
1.35 0.3 0
1.4 0.3 0
1.4 0.25 0
1.45 0.25 0
1.4 0.3 0
1.45 0.3 0
1.45 0.25 0
1.5 0.25 0
[...]
POINT_DATA 3200
SCALARS x_displacement double 1
LOOKUP_TABLE default
0 -1.70643 0 -0.997115 -1.70643 -2.93928 -0.997115 -2.03302 -2.93928 -3.93792 -2.03302 -2.89568 -3.93792 -4.77652 -2.89568 -3.63548 -4.77652 -5.52753 -3.63548 -4.29237 -5.52753 -6.26499 -4.29237 -4.8999 -6.26499 -7.02185 -4.8999 -5.5189 -7.02185 -7.79469 -5.5189 -6.18237 -7.79469 -8.57548 -6.18237 -6.87662 -8.57548 -9.35758 -6.87662 -7.58852 -9.35758 -10.1339 -7.58852 -8.30657 -10.1339 -10.8968 -8.30657 -9.02644 -10.8968 -11.6435 -9.02644 -9.74641 -11.6435 -12.3752 -9.74641 -10.465 -12.3752 -13.095 -10.465 -11.18 -13.095 -13.8071 -11.18 -11.8886 -13.8071 -14.516 -11.8886 -12.5883 -14.516 -15.2262 -12.5883 -13.2764 -15.2262 -15.9423 -13.2764 -13.9497 -15.9423 -16.6682 -13.9497 -14.6044 -16.6682 -17.4052 -14.6044 -15.235 -17.4052 -18.1498 -15.235 -15.8345 -18.1498 -18.8866 -15.8345 -16.3952 -18.8866 -19.5756 -16.3952 -16.912 -19.5756 -20.1447 -16.912 -17.3778 -20.1447 -20.5488 -17.3778 -17.8044 -20.5488 -20.8396 -17.8044 -18.2668 -20.8396 -21.2373 -18.2668 -18.7699 -21.2373 -21.8397 -18.7699 -19.0651 -21.8397 -21.7187 -19.0651 -19.3995 -21.7187 -21.794 -19.3995 -19.8309 -21.794 -22.7726 -19.8309 -19.5766 -22.7726 -23.1285 -19.5766 -19.9635 -23.1285 -23.2751 -19.9635 -20.2481 -23.2751 -23.3593 -20.2481 -20.3747 -23.3593 -23.3652 -20.3747 -20.4982 -23.3652 -23.3511 -20.4982 -20.5658 -23.3511 -23.3223 -20.5658 -20.5937 -23.3223 -23.2978 -20.5937 -20.6021 -23.2978 -23.2906 -20.6021 -20.6043 0 -0.997115 0 -0.858885 -0.997115 -2.03302 -0.858885 -1.48602 -2.03302 -2.89568 -1.48602 -2.09842 -2.89568 -3.63548 -2.09842 -2.69399 -3.63548 -4.29237 -2.69399 -3.19796 -4.29237 -4.8999 -3.19796 -3.59855 -4.8999 -5.5189 -3.59855 -3.96564 -5.5189 -6.18237 -3.96564 -4.49306 -6.18237 -6.87662 -4.49306 -5.14751 -6.87662 -7.58852 -5.14751 -5.81178 -7.58852 -8.30657 -5.81178 -6.48225 -8.30657 -9.02644 -6.48225 -7.16333 -9.02644 -9.74641 -7.16333 -7.86003 -9.74641 -10.465 -7.86003 -8.57031 -10.465 -11.18 -8.57031 -9.28484 -11.18 -11.8886 -9.28484 -9.99424 -11.8886 -12.5883 -9.99424 -10.6896 -12.5883 -13.2764 -10.6896 -11.3619 -13.2764 -13.9497 -11.3619 -12.0018 -13.9497 -14.6044 -12.0018 -12.5995 -14.6044 -15.235 -12.5995 -13.1462 -15.235 -15.8345 -13.1462 -13.633 -15.8345 -16.3952 -13.633 -14.0527 -16.3952 -16.912 -14.0527 -14.4218 -16.912 -17.3778 -14.4218 -14.793 -17.3778 -17.8044 -14.793 -15.188 -17.8044 -18.2668 -15.188 -15.5663 -18.2668 -18.7699 -15.5663 -15.9242 -18.7699 -19.0651 -15.9242 -16.2873 -19.0651 -19.3995 -16.2873 -16.7077 -19.3995 -19.8309 -16.7077 -16.9975 -19.8309 -19.5766 -16.9975 -17.2654 -19.5766 -19.9635 -17.2654 -17.3575 -19.9635 -20.2481 -17.3575 -17.1905 -20.2481 -20.3747 -17.1905 -17.5675 -20.3747 -20.4982 -17.5675 -17.7491 -20.4982 -20.5658 -17.7491 -17.8513 -20.5658 -20.5937 -17.8513 -17.918 -20.5937 -20.6021 -17.918 -17.9348 -20.6021 -20.6043 -17.9348 -17.9435 0 -0.858885 0 -0.624299 -0.858885 -1.48602 -0.624299 -0.884595 -1.48602 -2.09842 -0.884595 -1.48032 -2.09842 -2.69399 -1.48032 -1.92804 -2.69399 -3.19796 -1.92804 -2.32158 -3.19796 -3.59855 -2.32158 -2.68582 -3.59855 -3.96564 -2.68582 -3.03345 -3.96564 -4.49306 -3.03345 -3.42685 -4.49306 -5.14751 -3.42685 -3.80147 -5.14751 -5.81178 -3.80147 -4.25509 -5.81178 -6.48225 -4.25509 -4.72392 -6.48225 -7.16333 -4.72392 -5.31082 -7.16333 -7.86003 -5.31082 -6.01129 -7.86003 -8.57031 -6.01129 -6.74682 -8.57031 -9.28484 -6.74682 -7.51607 -9.28484 -9.99424 -7.51607 -8.30144 -9.99424 -10.6896 -8.30144 -9.06882 -10.6896 -11.3619 -9.06882 -9.79205 -11.3619 -12.0018 -9.79205 -10.4593 -12.0018 -12.5995 -10.4593 -11.0513 -12.5995 -13.1462 -11.0513 -11.5337 -13.1462 -13.633 -11.5337 -11.8689 -13.633 -14.0527 -11.8689 -12.0649 -14.0527 -14.4218 -12.0649 -12.1787 -14.4218 -14.793 -12.1787 -12.2641 -14.793 -15.188 -12.2641 -12.3988 -15.188 -15.5663 -12.3988 -12.7039 -15.5663 -15.9242 -12.7039 -13.1323 -15.9242 -16.2873 -13.1323 -13.509 -16.2873 -16.7077 -13.509 -13.8704 -16.7077 -16.9975 -13.8704 -14.2441 -16.9975 -17.2654 -14.2441 -14.5383 -17.2654 -17.3575 -14.5383 -14.8061 -17.3575 -17.1905 -14.8061 -15.1017 -17.1905 -17.5675 -15.1017 -14.9542 -17.5675 -17.7491 -14.9542 -15.1048 -17.7491 -17.8513 -15.1048 -15.2664 -17.8513 -17.918 -15.2664 -15.316 -17.918 -17.9348 -15.316 -15.3584 -17.9348 -17.9435 -15.3584 -15.3667 0 -0.624299 0 0.00337126 -0.624299 -0.884595 0.00337126 -0.476908 -0.884595 -1.48032 -0.476908 -0.879822 -1.48032 -1.92804 -0.879822 -1.1501 -1.92804 -2.32158 -1.1501 -1.63185 -2.32158 -2.68582 -1.63185 -2.01398 -2.68582 -3.03345 -2.01398 -2.39547 -3.03345 -3.42685 -2.39547 -2.80118 -3.42685 -3.80147 -2.80118 -3.25142 -3.80147 -4.25509 -3.25142 -3.72756 -4.25509 -4.72392 -3.72756 -4.19447 -4.72392 -5.31082 -4.19447 -4.82797 -5.31082 -6.01129 -4.82797 -5.52633 -6.01129 -6.74682 -5.52633 -6.34395 -6.74682 -7.51607 -6.34395 -7.23208 -7.51607 -8.30144 -7.23208 -7.94539 -8.30144 -9.06882 -7.94539 -8.54023 -9.06882 -9.79205 -8.54023 -9.06063 -9.79205 -10.4593 -9.06063 -9.51534 -10.4593 -11.0513 -9.51534 -9.86982 -11.0513 -11.5337 -9.86982 -10.081 -11.5337 -11.8689 -10.081 -10.1584 -11.8689 -12.0649 -10.1584 -10.148 -12.0649 -12.1787 -10.148 -10.0846 -12.1787 -12.2641 -10.0846 -9.99408 -12.2641 -12.3988 -9.99408 -9.90196 -12.3988 -12.7039 -9.90196 -9.96168 -12.7039 -13.1323 -9.96168 -10.2958 -13.1323 -13.509 -10.2958 -10.7019 -13.509 -13.8704 -10.7019 -11.1205 -13.8704 -14.2441 -11.1205 -11.4889 -14.2441 -14.5383 -11.4889 -11.8414 -14.5383 -14.8061 -11.8414 -12.2259 -14.8061 -15.1017 -12.2259 -12.4653 -15.1017 -14.9542 -12.4653 -12.6714 -14.9542 -15.1048 -12.6714 -12.7606 -15.1048 -15.2664 -12.7606 -12.5257 -15.2664 -15.316 -12.5257 -12.892 -15.316 -15.3584 -12.892 -12.9504 -15.3584 -15.3667 -12.9504 -12.8903 0 0.00337126 0 -0.538552 0.00337126 -0.476908 -0.538552 -0.668263 -0.476908 -0.879822 -0.668263 -0.0955277 -0.879822 -1.1501 -0.0955277 -0.572297 -1.1501 -1.63185 -0.572297 -0.986755 -1.63185 -2.01398 -0.986755 -1.30714 -2.01398 -2.39547 -1.30714 -1.75345 -2.39547 -2.80118 -1.75345 -2.15233 -2.80118 -3.25142 -2.15233 -2.56489 -3.25142 -3.72756 -2.56489 -3.00241 -3.72756 -4.19447 -3.00241 -3.50982 -4.19447 -4.82797 -3.50982 -4.03486 -4.82797 -5.52633 -4.03486 -4.52871 -5.52633 -6.34395 -4.52871 -5.15367 -6.34395 -7.23208 -5.15367 -5.93974 -7.23208 -7.94539 -5.93974 -6.83846 -7.94539 -8.54023 -6.83846 -7.5481 -8.54023 -9.06063 -7.5481 -8.01314 -9.06063 -9.51534 -8.01314 -8.29814 -9.51534 -9.86982 -8.29814 -8.4213 -9.86982 -10.081 -8.4213 -8.42784 -10.081 -10.1584 -8.42784 -8.36223 -10.1584 -10.148 -8.36223 -8.24723 -10.148 -10.0846 -8.24723 -8.08895 -10.0846 -9.99408 -8.08895 -7.88568 -9.99408 -9.90196 -7.88568 -7.66006 -9.90196 -9.96168 -7.66006 -7.48582 -9.96168 -10.2958 -7.48582 -7.55555 -10.2958 -10.7019 -7.55555 -7.95396 -10.7019 -11.1205 -7.95396 -8.34044 -11.1205 -11.4889 -8.34044 -8.84258 -11.4889 -11.8414 -8.84258 -9.23989 -11.8414 -12.2259 -9.23989 -9.60009 -12.2259 -12.4653 -9.60009 -9.96286 -12.4653 -12.6714 -9.96286 -10.2792 -12.6714 -12.7606 -10.2792 -10.5935 -12.7606 -12.5257 -10.5935 -10.9347 -12.5257 -12.892 -10.9347 -10.6001 -12.892 -12.9504 -10.6001 -10.6957 -12.9504 -12.8903 -10.6957 -10.8245 0 -0.538552 0 -0.112065 -0.538552 -0.668263 -0.112065 -0.226477 -0.668263 -0.0955277 -0.226477 -0.50096 -0.0955277 -0.572297 -0.50096 -0.536849 -0.572297 -0.986755 -0.536849 -0.321285 -0.986755 -1.30714 -0.321285 -0.731487 -1.30714 -1.75345 -0.731487 -1.07151 -1.75345 -2.15233 -1.07151 -1.43445 -2.15233 -2.56489 -1.43445 -1.86438 -2.56489 -3.00241 -1.86438 -2.26153 -3.00241 -3.50982 -2.26153 -2.67414 -3.50982 -4.03486 -2.67414 -3.10106 -4.03486 -4.52871 -3.10106 -3.57814 -4.52871 -5.15367 -3.57814 -4.08767 -5.15367 -5.93974 -4.08767 -4.58604 -5.93974 -6.83846 -4.58604 -5.18742 -6.83846 -7.5481 -5.18742 -5.92813 -7.5481 -8.01314 -5.92813 -6.54525 -8.01314 -8.29814 -6.54525 -6.74925 -8.29814 -8.4213 -6.74925 -6.73862 -8.4213 -8.42784 -6.73862 -6.65753 -8.42784 -8.36223 -6.65753 -6.53564 -8.36223 -8.24723 -6.53564 -6.37316 -8.24723 -8.08895 -6.37316 -6.16283 -8.08895 -7.88568 -6.16283 -5.89921 -7.88568 -7.66006 -5.89921 -5.59573 -7.66006 -7.48582 -5.59573 -5.34868 -7.48582 -7.55555 -5.34868 -5.25742 -7.55555 -7.95396 -5.25742 -5.27192 -7.95396 -8.34044 -5.27192 -5.68118 -8.34044 -8.84258 -5.68118 -6.24418 -8.84258 -9.23989 -6.24418 -6.63234 -9.23989 -9.60009 -6.63234 -7.12262 -9.60009 -9.96286 -7.12262 -7.53216 -9.96286 -10.2792 -7.53216 -7.91603 -10.2792 -10.5935 -7.91603 -8.3418 -10.5935 -10.9347 -8.3418 -8.60159 -10.9347 -10.6001 -8.60159 -8.93016 -10.6001 -10.6957 -8.93016 -9.39313 -10.6957 -10.8245 -9.39313 -8.85156 0 -0.112065 0 -0.0799845 -0.112065 -0.226477 -0.0799845 -0.180965 -0.226477 -0.50096 -0.180965 -0.217814 -0.50096 -0.536849 -0.217814 -0.287136 -0.536849 -0.321285 -0.287136 -0.603435 -0.321285 -0.731487 -0.603435 -0.274674 -0.731487 -1.07151 -0.274674 -0.39991 -1.07151 -1.43445 -0.39991 -0.79328 -1.43445 -1.86438 -0.79328 -1.09248 -1.86438 -2.26153 -1.09248 -1.43243 -2.26153 -2.67414 -1.43243 -1.81899 -2.67414 -3.10106 -1.81899 -2.18023 -3.10106 -3.57814 -2.18023 -2.5601 -3.57814 -4.08767 -2.5601 -2.95619 -4.08767 -4.58604 -2.95619 -3.38122 -4.58604 -5.18742 -3.38122 -3.83778 -5.18742 -5.92813 -3.83778 -4.32701 -5.92813 -6.54525 -4.32701 -4.84051 -6.54525 -6.74925 -4.84051 -5.02238 -6.74925 -6.73862 -5.02238 -4.97264 -6.73862 -6.65753 -4.97264 -4.86921 -6.65753 -6.53564 -4.86921 -4.73294 -6.53564 -6.37316 -4.73294 -4.55861 -6.37316 -6.16283 -4.55861 -4.34247 -6.16283 -5.89921 -4.34247 -4.09184 -5.89921 -5.59573 -4.09184 -3.82137 -5.59573 -5.34868 -3.82137 -3.55825 -5.34868 -5.25742 -3.55825 -3.33637 -5.25742 -5.27192 -3.33637 -3.21825 -5.27192 -5.68118 -3.21825 -3.20364 -5.68118 -6.24418 -3.20364 -3.51626 -6.24418 -6.63234 -3.51626 -4.15893 -6.63234 -7.12262 -4.15893 -4.69594 -7.12262 -7.53216 -4.69594 -5.23897 -7.53216 -7.91603 -5.23897 -5.63905 -7.91603 -8.3418 -5.63905 -5.99972 -8.3418 -8.60159 -5.99972 -6.38073 -8.60159 -8.93016 -6.38073 -6.83317 -8.93016 -9.39313 -6.83317 -7.22662 -9.39313 -8.85156 -7.22662 -7.73159 0 -0.0799845 0 -0.0546318 -0.0799845 -0.180965 -0.0546318 -0.0832732 -0.180965 -0.217814 -0.0832732 -0.0995044 -0.217814 -0.287136 -0.0995044 -0.0991962 -0.287136 -0.603435 -0.0991962 -0.00703121 -0.603435 -0.274674 -0.00703121 0.222693 -0.274674 -0.39991 0.222693 -0.488139 -0.39991 -0.79328 -0.488139 -0.148835 -0.79328 -1.09248 -0.148835 -0.320513 -1.09248 -1.43243 -0.320513 -0.657089 -1.43243 -1.81899 -0.657089 -0.923795 -1.81899 -2.18023 -0.923795 -1.20654 -2.18023 -2.5601 -1.20654 -1.53588 -2.5601 -2.95619 -1.53588 -1.86636 -2.95619 -3.38122 -1.86636 -2.19177 -3.38122 -3.83778 -2.19177 -2.51767 -3.83778 -4.32701 -2.51767 -2.85257 -4.32701 -4.84051 -2.85257 -3.1469 -4.84051 -5.02238 -3.1469 -3.25818 -5.02238 -4.97264 -3.25818 -3.21322 -4.97264 -4.86921 -3.21322 -3.11983 -4.86921 -4.73294 -3.11983 -2.99978 -4.73294 -4.55861 -2.99978 -2.86003 -4.55861 -4.34247 -2.86003 -2.71703 -4.34247 -4.09184 -2.71703 -2.56169 -4.09184 -3.82137 -2.56169 -2.35348 -3.82137 -3.55825 -2.35348 -2.0843 -3.55825 -3.33637 -2.0843 -1.78166 -3.33637 -3.21825 -1.78166 -1.50332 -3.21825 -3.20364 -1.50332 -1.26 -3.20364 -3.51626 -1.26 -1.07343 -3.51626 -4.15893 -1.07343 -1.58915 -4.15893 -4.69594 -1.58915 -2.52272 -4.69594 -5.23897 -2.52272 -3.01472 -5.23897 -5.63905 -3.01472 -3.34551 -5.63905 -5.99972 -3.34551 -3.79222 -5.99972 -6.38073 -3.79222 -4.1755 -6.38073 -6.83317 -4.1755 -4.5598 -6.83317 -7.22662 -4.5598 -4.97833 -7.22662 -7.73159 -4.97833 -5.2462 0 -0.0546318 0 -0.0223309 -0.0546318 -0.0832732 -0.0223309 -0.0323334 -0.0832732 -0.0995044 -0.0323334 -0.028131 -0.0995044 -0.0991962 -0.028131 -0.00512234 -0.0991962 -0.00703121 -0.00512234 0.00746066 -0.00703121 0.222693 0.00746066 -0.0204563 0.222693 -0.488139 -0.0204563 0.165722 -0.488139 -0.148835 0.165722 0.39104 -0.148835 -0.320513 0.39104 0.0277149 -0.320513 -0.657089 0.0277149 0.0837424 -0.657089 -0.923795 0.0837424 -0.13597 -0.923795 -1.20654 -0.13597 -0.383714 -1.20654 -1.53588 -0.383714 -0.597697 -1.53588 -1.86636 -0.597697 -0.806577 -1.86636 -2.19177 -0.806577 -1.02345 -2.19177 -2.51767 -1.02345 -1.23185 -2.51767 -2.85257 -1.23185 -1.4023 -2.85257 -3.1469 -1.4023 -1.52136 -3.1469 -3.25818 -1.52136 -1.56332 -3.25818 -3.21322 -1.56332 -1.53598 -3.21322 -3.11983 -1.53598 -1.47448 -3.11983 -2.99978 -1.47448 -1.4056 -2.99978 -2.86003 -1.4056 -1.35238 -2.86003 -2.71703 -1.35238 -1.31161 -2.71703 -2.56169 -1.31161 -1.2433 -2.56169 -2.35348 -1.2433 -1.1181 -2.35348 -2.0843 -1.1181 -0.920648 -2.0843 -1.78166 -0.920648 -0.656342 -1.78166 -1.50332 -0.656342 -0.356276 -1.50332 -1.26 -0.356276 -0.0519434 -1.26 -1.07343 -0.0519434 0.236242 -1.07343 -1.58915 0.236242 0.889964 -1.58915 -2.52272 0.889964 -0.880612 -2.52272 -3.01472 -0.880612 -0.797035 -3.01472 -3.34551 -0.797035 -1.26032 -3.34551 -3.79222 -1.26032 -1.65816 -3.79222 -4.1755 -1.65816 -2.01604 -4.1755 -4.5598 -2.01604 -2.30292 -4.5598 -4.97833 -2.30292 -2.60188 -4.97833 -5.2462 -2.60188 -2.6567 0 -0.0223309 0 2.45638e-10 -0.0223309 -0.0323334 2.45638e-10 1.01867e-10 -0.0323334 -0.028131 1.01867e-10 -1.41583e-10 -0.028131 -0.00512234 -1.41583e-10 -7.1062e-11 -0.00512234 0.00746066 -7.1062e-11 3.05862e-11 0.00746066 -0.0204563 3.05862e-11 4.0476e-11 -0.0204563 0.165722 4.0476e-11 1.98951e-10 0.165722 0.39104 1.98951e-10 3.38095e-10 0.39104 0.0277149 3.38095e-10 2.74366e-10 0.0277149 0.0837424 2.74366e-10 3.92274e-12 0.0837424 -0.13597 3.92274e-12 1.47129e-12 -0.13597 -0.383714 1.47129e-12 -1.30973e-12 -0.383714 -0.597697 -1.30973e-12 6.50701e-13 -0.597697 -0.806577 6.50701e-13 2.29586e-12 -0.806577 -1.02345 2.29586e-12 3.62858e-12 -1.02345 -1.23185 3.62858e-12 5.06941e-12 -1.23185 -1.4023 5.06941e-12 6.17492e-12 -1.4023 -1.52136 6.17492e-12 6.95699e-12 -1.52136 -1.56332 6.95699e-12 7.13258e-12 -1.56332 -1.53598 7.13258e-12 6.6996e-12 -1.53598 -1.47448 6.6996e-12 5.89897e-12 -1.47448 -1.4056 5.89897e-12 5.26989e-12 -1.4056 -1.35238 5.26989e-12 6.13492e-12 -1.35238 -1.31161 6.13492e-12 7.72538e-12 -1.31161 -1.2433 7.72538e-12 1.19906e-11 -1.2433 -1.1181 1.19906e-11 1.85534e-11 -1.1181 -0.920648 1.85534e-11 2.68824e-11 -0.920648 -0.656342 2.68824e-11 3.17514e-11 -0.656342 -0.356276 3.17514e-11 3.24904e-11 -0.356276 -0.0519434 3.24904e-11 4.6638e-11 -0.0519434 0.236242 4.6638e-11 3.88666e-11 0.236242 0.889964 3.88666e-11 2.06218e-10 0.889964 -0.880612 2.06218e-10 1.50399e-10 -0.880612 -0.797035 1.50399e-10 -1.9821e-11 -0.797035 -1.26032 -1.9821e-11 2.66355e-11 -1.26032 -1.65816 2.66355e-11 5.74535e-12 -1.65816 -2.01604 5.74535e-12 2.77794e-12 -2.01604 -2.30292 2.77794e-12 1.4591e-12 -2.30292 -2.60188 1.4591e-12 1.44417e-13 -2.60188 -2.6567 1.44417e-13 -1.04569e-12 0 2.45638e-10 0 0.0223309 2.45638e-10 1.01867e-10 0.0223309 0.0323334 1.01867e-10 -1.41583e-10 0.0323334 0.028131 -1.41583e-10 -7.1062e-11 0.028131 0.00512234 -7.1062e-11 3.05862e-11 0.00512234 -0.00746066 3.05862e-11 4.0476e-11 -0.00746066 0.0204563 4.0476e-11 1.98951e-10 0.0204563 -0.165722 1.98951e-10 3.38095e-10 -0.165722 -0.39104 3.38095e-10 2.74366e-10 -0.39104 -0.0277149 2.74366e-10 3.92274e-12 -0.0277149 -0.0837424 3.92274e-12 1.47129e-12 -0.0837424 0.13597 1.47129e-12 -1.30973e-12 0.13597 0.383714 -1.30973e-12 6.50701e-13 0.383714 0.597697 6.50701e-13 2.29586e-12 0.597697 0.806577 2.29586e-12 3.62858e-12 0.806577 1.02345 3.62858e-12 5.06941e-12 1.02345 1.23185 5.06941e-12 6.17492e-12 1.23185 1.4023 6.17492e-12 6.95699e-12 1.4023 1.52136 6.95699e-12 7.13258e-12 1.52136 1.56332 7.13258e-12 6.6996e-12 1.56332 1.53598 6.6996e-12 5.89897e-12 1.53598 1.47448 5.89897e-12 5.26989e-12 1.47448 1.4056 5.26989e-12 6.13492e-12 1.4056 1.35238 6.13492e-12 7.72538e-12 1.35238 1.31161 7.72538e-12 1.19906e-11 1.31161 1.2433 1.19906e-11 1.85534e-11 1.2433 1.1181 1.85534e-11 2.68824e-11 1.1181 0.920648 2.68824e-11 3.17514e-11 0.920648 0.656342 3.17514e-11 3.24904e-11 0.656342 0.356276 3.24904e-11 4.6638e-11 0.356276 0.0519434 4.6638e-11 3.88666e-11 0.0519434 -0.236242 3.88666e-11 2.06218e-10 -0.236242 -0.889964 2.06218e-10 1.50399e-10 -0.889964 0.880612 1.50399e-10 -1.9821e-11 0.880612 0.797035 -1.9821e-11 2.66355e-11 0.797035 1.26032 2.66355e-11 5.74535e-12 1.26032 1.65816 5.74535e-12 2.77794e-12 1.65816 2.01604 2.77794e-12 1.4591e-12 2.01604 2.30292 1.4591e-12 1.44417e-13 2.30292 2.60188 1.44417e-13 -1.04569e-12 2.60188 2.6567 0 0.0223309 0 0.0546318 0.0223309 0.0323334 0.0546318 0.0832732 0.0323334 0.028131 0.0832732 0.0995044 0.028131 0.00512234 0.0995044 0.0991962 0.00512234 -0.00746066 0.0991962 0.00703121 -0.00746066 0.0204563 0.00703121 -0.222693 0.0204563 -0.165722 -0.222693 0.488139 -0.165722 -0.39104 0.488139 0.148835 -0.39104 -0.0277149 0.148835 0.320513 -0.0277149 -0.0837424 0.320513 0.657089 -0.0837424 0.13597 0.657089 0.923795 0.13597 0.383714 0.923795 1.20654 0.383714 0.597697 1.20654 1.53588 0.597697 0.806577 1.53588 1.86636 0.806577 1.02345 1.86636 2.19177 1.02345 1.23185 2.19177 2.51767 1.23185 1.4023 2.51767 2.85257 1.4023 1.52136 2.85257 3.1469 1.52136 1.56332 3.1469 3.25818 1.56332 1.53598 3.25818 3.21322 1.53598 1.47448 3.21322 3.11983 1.47448 1.4056 3.11983 2.99978 1.4056 1.35238 2.99978 2.86003 1.35238 1.31161 2.86003 2.71703 1.31161 1.2433 2.71703 2.56169 1.2433 1.1181 2.56169 2.35348 1.1181 0.920648 2.35348 2.0843 0.920648 0.656342 2.0843 1.78166 0.656342 0.356276 1.78166 1.50332 0.356276 0.0519434 1.50332 1.26 0.0519434 -0.236242 1.26 1.07343 -0.236242 -0.889964 1.07343 1.58915 -0.889964 0.880612 1.58915 2.52272 0.880612 0.797035 2.52272 3.01472 0.797035 1.26032 3.01472 3.34551 1.26032 1.65816 3.34551 3.79222 1.65816 2.01604 3.79222 4.1755 2.01604 2.30292 4.1755 4.5598 2.30292 2.60188 4.5598 4.97833 2.60188 2.6567 4.97833 5.2462 0 0.0546318 0 0.0799845 0.0546318 0.0832732 0.0799845 0.180965 0.0832732 0.0995044 0.180965 0.217814 0.0995044 0.0991962 0.217814 0.287136 0.0991962 0.00703121 0.287136 0.603435 0.00703121 -0.222693 0.603435 0.274674 -0.222693 0.488139 0.274674 0.39991 0.488139 0.148835 0.39991 0.79328 0.148835 0.320513 0.79328 1.09248 0.320513 0.657089 1.09248 1.43243 0.657089 0.923795 1.43243 1.81899 0.923795 1.20654 1.81899 2.18023 1.20654 1.53588 2.18023 2.5601 1.53588 1.86636 2.5601 2.95619 1.86636 2.19177 2.95619 3.38122 2.19177 2.51767 3.38122 3.83778 2.51767 2.85257 3.83778 4.32701 2.85257 3.1469 4.32701 4.84051 3.1469 3.25818 4.84051 5.02238 3.25818 3.21322 5.02238 4.97264 3.21322 3.11983 4.97264 4.86921 3.11983 2.99978 4.86921 4.73294 2.99978 2.86003 4.73294 4.55861 2.86003 2.71703 4.55861 4.34247 2.71703 2.56169 4.34247 4.09184 2.56169 2.35348 4.09184 3.82137 2.35348 2.0843 3.82137 3.55825 2.0843 1.78166 3.55825 3.33637 1.78166 1.50332 3.33637 3.21825 1.50332 1.26 3.21825 3.20364 1.26 1.07343 3.20364 3.51626 1.07343 1.58915 3.51626 4.15893 1.58915 2.52272 4.15893 4.69594 2.52272 3.01472 4.69594 5.23897 3.01472 3.34551 5.23897 5.63905 3.34551 3.79222 5.63905 5.99972 3.79222 4.1755 5.99972 6.38073 4.1755 4.5598 6.38073 6.83317 4.5598 4.97833 6.83317 7.22662 4.97833 5.2462 7.22662 7.73159 0 0.0799845 0 0.112065 0.0799845 0.180965 0.112065 0.226477 0.180965 0.217814 0.226477 0.50096 0.217814 0.287136 0.50096 0.536849 0.287136 0.603435 0.536849 0.321285 0.603435 0.274674 0.321285 0.731487 0.274674 0.39991 0.731487 1.07151 0.39991 0.79328 1.07151 1.43445 0.79328 1.09248 1.43445 1.86438 1.09248 1.43243 1.86438 2.26153 1.43243 1.81899 2.26153 2.67414 1.81899 2.18023 2.67414 3.10106 2.18023 2.5601 3.10106 3.57814 2.5601 2.95619 3.57814 4.08767 2.95619 3.38122 4.08767 4.58604 3.38122 3.83778 4.58604 5.18742 3.83778 4.32701 5.18742 5.92813 4.32701 4.84051 5.92813 6.54525 4.84051 5.02238 6.54525 6.74925 5.02238 4.97264 6.74925 6.73862 4.97264 4.86921 6.73862 6.65753 4.86921 4.73294 6.65753 6.53564 4.73294 4.55861 6.53564 6.37316 4.55861 4.34247 6.37316 6.16283 4.34247 4.09184 6.16283 5.89921 4.09184 3.82137 5.89921 5.59573 3.82137 3.55825 5.59573 5.34868 3.55825 3.33637 5.34868 5.25742 3.33637 3.21825 5.25742 5.27192 3.21825 3.20364 5.27192 5.68118 3.20364 3.51626 5.68118 6.24418 3.51626 4.15