# vtk DataFile Version 3.0
#This file was generated by the deal.II library on 2015/8/30 at 10:13:44
ASCII
DATASET UNSTRUCTURED_GRID

POINTS 20 double
1 0 0
2 0 0
1 1 0
2 1 0
0 0 0
0.5 0 0
0 0.5 0
0.5 0.5 0
0.5 0 0
1 0 0
0.5 0.5 0
1 0.5 0
0 0.5 0
0.5 0.5 0
0 1 0
0.5 1 0
0.5 0.5 0
1 0.5 0
0.5 1 0
1 1 0

CELLS 5 25
4	0	1	3	2
4	4	5	7	6
4	8	9	11	10
4	12	13	15	14
4	16	17	19	18

CELL_TYPES 5
 9 9 9 9 9
POINT_DATA 20
SCALARS x_displacement double 1
LOOKUP_TABLE default
-52.4762 -76.5308 52.4762 76.5308 0 -25.8185 0 8.97732e-14 -25.8185 -52.4762 8.97732e-14 2.4869e-14 0 8.97732e-14 0 25.8185 8.97732e-14 2.4869e-14 25.8185 52.4762 
SCALARS y_displacement double 1
LOOKUP_TABLE default
-68.2892 -229.182 -68.2892 -229.182 0 -22.314 0 -16.9124 -22.314 -68.2892 -16.9124 -68.2892 0 -16.9124 0 -22.314 -16.9124 -68.2892 -22.314 -68.2892 
