# vtk DataFile Version 3.0
#This file was generated by the deal.II library on 2015/9/1 at 17:12:53
ASCII
DATASET UNSTRUCTURED_GRID

POINTS 3200 double
0 0 0
0.05 0 0
0 0.05 0
0.05 0.05 0
0.05 0 0
0.1 0 0
0.05 0.05 0
0.1 0.05 0
0.1 0 0
0.15 0 0
0.1 0.05 0
0.15 0.05 0
0.15 0 0
0.2 0 0
0.15 0.05 0
0.2 0.05 0
0.2 0 0
0.25 0 0
0.2 0.05 0
0.25 0.05 0
0.25 0 0
0.3 0 0
0.25 0.05 0
0.3 0.05 0
0.3 0 0
0.35 0 0
0.3 0.05 0
0.35 0.05 0
0.35 0 0
0.4 0 0
0.35 0.05 0
0.4 0.05 0
0.4 0 0
0.45 0 0
0.4 0.05 0
0.45 0.05 0
0.45 0 0
0.5 0 0
0.45 0.05 0
0.5 0.05 0
0.5 0 0
0.55 0 0
0.5 0.05 0
0.55 0.05 0
0.55 0 0
0.6 0 0
0.55 0.05 0
0.6 0.05 0
0.6 0 0
0.65 0 0
0.6 0.05 0
0.65 0.05 0
0.65 0 0
0.7 0 0
0.65 0.05 0
0.7 0.05 0
0.7 0 0
0.75 0 0
0.7 0.05 0
0.75 0.05 0
0.75 0 0
0.8 0 0
0.75 0.05 0
0.8 0.05 0
0.8 0 0
0.85 0 0
0.8 0.05 0
0.85 0.05 0
0.85 0 0
0.9 0 0
0.85 0.05 0
0.9 0.05 0
0.9 0 0
0.95 0 0
0.9 0.05 0
0.95 0.05 0
0.95 0 0
1 0 0
0.95 0.05 0
1 0.05 0
1 0 0
1.05 0 0
1 0.05 0
1.05 0.05 0
1.05 0 0
1.1 0 0
1.05 0.05 0
1.1 0.05 0
1.1 0 0
1.15 0 0
1.1 0.05 0
1.15 0.05 0
1.15 0 0
1.2 0 0
1.15 0.05 0
1.2 0.05 0
1.2 0 0
1.25 0 0
1.2 0.05 0
1.25 0.05 0
1.25 0 0
1.3 0 0
1.25 0.05 0
1.3 0.05 0
1.3 0 0
1.35 0 0
1.3 0.05 0
1.35 0.05 0
1.35 0 0
1.4 0 0
1.35 0.05 0
1.4 0.05 0
1.4 0 0
1.45 0 0
1.4 0.05 0
1.45 0.05 0
1.45 0 0
1.5 0 0
1.45 0.05 0
1.5 0.05 0
1.5 0 0
1.55 0 0
1.5 0.05 0
1.55 0.05 0
1.55 0 0
1.6 0 0
1.55 0.05 0
1.6 0.05 0
1.6 0 0
1.65 0 0
1.6 0.05 0
1.65 0.05 0
1.65 0 0
1.7 0 0
1.65 0.05 0
1.7 0.05 0
1.7 0 0
1.75 0 0
1.7 0.05 0
1.75 0.05 0
1.75 0 0
1.8 0 0
1.75 0.05 0
1.8 0.05 0
1.8 0 0
1.85 0 0
1.8 0.05 0
1.85 0.05 0
1.85 0 0
1.9 0 0
1.85 0.05 0
1.9 0.05 0
1.9 0 0
1.95 0 0
1.9 0.05 0
1.95 0.05 0
1.95 0 0
2 0 0
1.95 0.05 0
2 0.05 0
0 0.05 0
0.05 0.05 0
0 0.1 0
0.05 0.1 0
0.05 0.05 0
0.1 0.05 0
0.05 0.1 0
0.1 0.1 0
0.1 0.05 0
0.15 0.05 0
0.1 0.1 0
0.15 0.1 0
0.15 0.05 0
0.2 0.05 0
0.15 0.1 0
0.2 0.1 0
0.2 0.05 0
0.25 0.05 0
0.2 0.1 0
0.25 0.1 0
0.25 0.05 0
0.3 0.05 0
0.25 0.1 0
0.3 0.1 0
0.3 0.05 0
0.35 0.05 0
0.3 0.1 0
0.35 0.1 0
0.35 0.05 0
0.4 0.05 0
0.35 0.1 0
0.4 0.1 0
0.4 0.05 0
0.45 0.05 0
0.4 0.1 0
0.45 0.1 0
0.45 0.05 0
0.5 0.05 0
0.45 0.1 0
0.5 0.1 0
0.5 0.05 0
0.55 0.05 0
0.5 0.1 0
0.55 0.1 0
0.55 0.05 0
0.6 0.05 0
0.55 0.1 0
0.6 0.1 0
0.6 0.05 0
0.65 0.05 0
0.6 0.1 0
0.65 0.1 0
0.65 0.05 0
0.7 0.05 0
0.65 0.1 0
0.7 0.1 0
0.7 0.05 0
0.75 0.05 0
0.7 0.1 0
0.75 0.1 0
0.75 0.05 0
0.8 0.05 0
0.75 0.1 0
0.8 0.1 0
0.8 0.05 0
0.85 0.05 0
0.8 0.1 0
0.85 0.1 0
0.85 0.05 0
0.9 0.05 0
0.85 0.1 0
0.9 0.1 0
0.9 0.05 0
0.95 0.05 0
0.9 0.1 0
0.95 0.1 0
0.95 0.05 0
1 0.05 0
0.95 0.1 0
1 0.1 0
1 0.05 0
1.05 0.05 0
1 0.1 0
1.05 0.1 0
1.05 0.05 0
1.1 0.05 0
1.05 0.1 0
1.1 0.1 0
1.1 0.05 0
1.15 0.05 0
1.1 0.1 0
1.15 0.1 0
1.15 0.05 0
1.2 0.05 0
1.15 0.1 0
1.2 0.1 0
1.2 0.05 0
1.25 0.05 0
1.2 0.1 0
1.25 0.1 0
1.25 0.05 0
1.3 0.05 0
1.25 0.1 0
1.3 0.1 0
1.3 0.05 0
1.35 0.05 0
1.3 0.1 0
1.35 0.1 0
1.35 0.05 0
1.4 0.05 0
1.35 0.1 0
1.4 0.1 0
1.4 0.05 0
1.45 0.05 0
1.4 0.1 0
1.45 0.1 0
1.45 0.05 0
1.5 0.05 0
1.45 0.1 0
1.5 0.1 0
1.5 0.05 0
1.55 0.05 0
1.5 0.1 0
1.55 0.1 0
1.55 0.05 0
1.6 0.05 0
1.55 0.1 0
1.6 0.1 0
1.6 0.05 0
1.65 0.05 0
1.6 0.1 0
1.65 0.1 0
1.65 0.05 0
1.7 0.05 0
1.65 0.1 0
1.7 0.1 0
1.7 0.05 0
1.75 0.05 0
1.7 0.1 0
1.75 0.1 0
1.75 0.05 0
1.8 0.05 0
1.75 0.1 0
1.8 0.1 0
1.8 0.05 0
1.85 0.05 0
1.8 0.1 0
1.85 0.1 0
1.85 0.05 0
1.9 0.05 0
1.85 0.1 0
1.9 0.1 0
1.9 0.05 0
1.95 0.05 0
1.9 0.1 0
1.95 0.1 0
1.95 0.05 0
2 0.05 0
1.95 0.1 0
2 0.1 0
0 0.1 0
0.05 0.1 0
0 0.15 0
0.05 0.15 0
0.05 0.1 0
0.1 0.1 0
0.05 0.15 0
0.1 0.15 0
0.1 0.1 0
0.15 0.1 0
0.1 0.15 0
0.15 0.15 0
0.15 0.1 0
0.2 0.1 0
0.15 0.15 0
0.2 0.15 0
0.2 0.1 0
0.25 0.1 0
0.2 0.15 0
0.25 0.15 0
0.25 0.1 0
0.3 0.1 0
0.25 0.15 0
0.3 0.15 0
0.3 0.1 0
0.35 0.1 0
0.3 0.15 0
0.35 0.15 0
0.35 0.1 0
0.4 0.1 0
0.35 0.15 0
0.4 0.15 0
0.4 0.1 0
0.45 0.1 0
0.4 0.15 0
0.45 0.15 0
0.45 0.1 0
0.5 0.1 0
0.45 0.15 0
0.5 0.15 0
0.5 0.1 0
0.55 0.1 0
0.5 0.15 0
0.55 0.15 0
0.55 0.1 0
0.6 0.1 0
0.55 0.15 0
0.6 0.15 0
0.6 0.1 0
0.65 0.1 0
0.6 0.15 0
0.65 0.15 0
0.65 0.1 0
0.7 0.1 0
0.65 0.15 0
0.7 0.15 0
0.7 0.1 0
0.75 0.1 0
0.7 0.15 0
0.75 0.15 0
0.75 0.1 0
0.8 0.1 0
0.75 0.15 0
0.8 0.15 0
0.8 0.1 0
0.85 0.1 0
0.8 0.15 0
0.85 0.15 0
0.85 0.1 0
0.9 0.1 0
0.85 0.15 0
0.9 0.15 0
0.9 0.1 0
0.95 0.1 0
0.9 0.15 0
0.95 0.15 0
0.95 0.1 0
1 0.1 0
0.95 0.15 0
1 0.15 0
1 0.1 0
1.05 0.1 0
1 0.15 0
1.05 0.15 0
1.05 0.1 0
1.1 0.1 0
1.05 0.15 0
1.1 0.15 0
1.1 0.1 0
1.15 0.1 0
1.1 0.15 0
1.15 0.15 0
1.15 0.1 0
1.2 0.1 0
1.15 0.15 0
1.2 0.15 0
1.2 0.1 0
1.25 0.1 0
1.2 0.15 0
1.25 0.15 0
1.25 0.1 0
1.3 0.1 0
1.25 0.15 0
1.3 0.15 0
1.3 0.1 0
1.35 0.1 0
1.3 0.15 0
1.35 0.15 0
1.35 0.1 0
1.4 0.1 0
1.35 0.15 0
1.4 0.15 0
1.4 0.1 0
1.45 0.1 0
1.4 0.15 0
1.45 0.15 0
1.45 0.1 0
1.5 0.1 0
1.45 0.15 0
1.5 0.15 0
1.5 0.1 0
1.55 0.1 0
1.5 0.15 0
1.55 0.15 0
1.55 0.1 0
1.6 0.1 0
1.55 0.15 0
1.6 0.15 0
1.6 0.1 0
1.65 0.1 0
1.6 0.15 0
1.65 0.15 0
1.65 0.1 0
1.7 0.1 0
1.65 0.15 0
1.7 0.15 0
1.7 0.1 0
1.75 0.1 0
1.7 0.15 0
1.75 0.15 0
1.75 0.1 0
1.8 0.1 0
1.75 0.15 0
1.8 0.15 0
1.8 0.1 0
1.85 0.1 0
1.8 0.15 0
1.85 0.15 0
1.85 0.1 0
1.9 0.1 0
1.85 0.15 0
1.9 0.15 0
1.9 0.1 0
1.95 0.1 0
1.9 0.15 0
1.95 0.15 0
1.95 0.1 0
2 0.1 0
1.95 0.15 0
2 0.15 0
0 0.15 0
0.05 0.15 0
0 0.2 0
0.05 0.2 0
0.05 0.15 0
0.1 0.15 0
0.05 0.2 0
0.1 0.2 0
0.1 0.15 0
0.15 0.15 0
0.1 0.2 0
0.15 0.2 0
0.15 0.15 0
0.2 0.15 0
0.15 0.2 0
0.2 0.2 0
0.2 0.15 0
0.25 0.15 0
0.2 0.2 0
0.25 0.2 0
0.25 0.15 0
0.3 0.15 0
0.25 0.2 0
0.3 0.2 0
0.3 0.15 0
0.35 0.15 0
0.3 0.2 0
0.35 0.2 0
0.35 0.15 0
0.4 0.15 0
0.35 0.2 0
0.4 0.2 0
0.4 0.15 0
0.45 0.15 0
0.4 0.2 0
0.45 0.2 0
0.45 0.15 0
0.5 0.15 0
0.45 0.2 0
0.5 0.2 0
0.5 0.15 0
0.55 0.15 0
0.5 0.2 0
0.55 0.2 0
0.55 0.15 0
0.6 0.15 0
0.55 0.2 0
0.6 0.2 0
0.6 0.15 0
0.65 0.15 0
0.6 0.2 0
0.65 0.2 0
0.65 0.15 0
0.7 0.15 0
0.65 0.2 0
0.7 0.2 0
0.7 0.15 0
0.75 0.15 0
0.7 0.2 0
0.75 0.2 0
0.75 0.15 0
0.8 0.15 0
0.75 0.2 0
0.8 0.2 0
0.8 0.15 0
0.85 0.15 0
0.8 0.2 0
0.85 0.2 0
0.85 0.15 0
0.9 0.15 0
0.85 0.2 0
0.9 0.2 0
0.9 0.15 0
0.95 0.15 0
0.9 0.2 0
0.95 0.2 0
0.95 0.15 0
1 0.15 0
0.95 0.2 0
1 0.2 0
1 0.15 0
1.05 0.15 0
1 0.2 0
1.05 0.2 0
1.05 0.15 0
1.1 0.15 0
1.05 0.2 0
1.1 0.2 0
1.1 0.15 0
1.15 0.15 0
1.1 0.2 0
1.15 0.2 0
1.15 0.15 0
1.2 0.15 0
1.15 0.2 0
1.2 0.2 0
1.2 0.15 0
1.25 0.15 0
1.2 0.2 0
1.25 0.2 0
1.25 0.15 0
1.3 0.15 0
1.25 0.2 0
1.3 0.2 0
1.3 0.15 0
1.35 0.15 0
1.3 0.2 0
1.35 0.2 0
1.35 0.15 0
1.4 0.15 0
1.35 0.2 0
1.4 0.2 0
1.4 0.15 0
1.45 0.15 0
1.4 0.2 0
1.45 0.2 0
1.45 0.15 0
1.5 0.15 0
1.45 0.2 0
1.5 0.2 0
1.5 0.15 0
1.55 0.15 0
1.5 0.2 0
1.55 0.2 0
1.55 0.15 0
1.6 0.15 0
1.55 0.2 0
1.6 0.2 0
1.6 0.15 0
1.65 0.15 0
1.6 0.2 0
1.65 0.2 0
1.65 0.15 0
1.7 0.15 0
1.65 0.2 0
1.7 0.2 0
1.7 0.15 0
1.75 0.15 0
1.7 0.2 0
1.75 0.2 0
1.75 0.15 0
1.8 0.15 0
1.75 0.2 0
1.8 0.2 0
1.8 0.15 0
1.85 0.15 0
1.8 0.2 0
1.85 0.2 0
1.85 0.15 0
1.9 0.15 0
1.85 0.2 0
1.9 0.2 0
1.9 0.15 0
1.95 0.15 0
1.9 0.2 0
1.95 0.2 0
1.95 0.15 0
2 0.15 0
1.95 0.2 0
2 0.2 0
0 0.2 0
0.05 0.2 0
0 0.25 0
0.05 0.25 0
0.05 0.2 0
0.1 0.2 0
0.05 0.25 0
0.1 0.25 0
0.1 0.2 0
0.15 0.2 0
0.1 0.25 0
0.15 0.25 0
0.15 0.2 0
0.2 0.2 0
0.15 0.25 0
0.2 0.25 0
0.2 0.2 0
0.25 0.2 0
0.2 0.25 0
0.25 0.25 0
0.25 0.2 0
0.3 0.2 0
0.25 0.25 0
0.3 0.25 0
0.3 0.2 0
0.35 0.2 0
0.3 0.25 0
0.35 0.25 0
0.35 0.2 0
0.4 0.2 0
0.35 0.25 0
0.4 0.25 0
0.4 0.2 0
0.45 0.2 0
0.4 0.25 0
0.45 0.25 0
0.45 0.2 0
0.5 0.2 0
0.45 0.25 0
0.5 0.25 0
0.5 0.2 0
0.55 0.2 0
0.5 0.25 0
0.55 0.25 0
0.55 0.2 0
0.6 0.2 0
0.55 0.25 0
0.6 0.25 0
0.6 0.2 0
0.65 0.2 0
0.6 0.25 0
0.65 0.25 0
0.65 0.2 0
0.7 0.2 0
0.65 0.25 0
0.7 0.25 0
0.7 0.2 0
0.75 0.2 0
0.7 0.25 0
0.75 0.25 0
0.75 0.2 0
0.8 0.2 0
0.75 0.25 0
0.8 0.25 0
0.8 0.2 0
0.85 0.2 0
0.8 0.25 0
0.85 0.25 0
0.85 0.2 0
0.9 0.2 0
0.85 0.25 0
0.9 0.25 0
0.9 0.2 0
0.95 0.2 0
0.9 0.25 0
0.95 0.25 0
0.95 0.2 0
1 0.2 0
0.95 0.25 0
1 0.25 0
1 0.2 0
1.05 0.2 0
1 0.25 0
1.05 0.25 0
1.05 0.2 0
1.1 0.2 0
1.05 0.25 0
1.1 0.25 0
1.1 0.2 0
1.15 0.2 0
1.1 0.25 0
1.15 0.25 0
1.15 0.2 0
1.2 0.2 0
1.15 0.25 0
1.2 0.25 0
1.2 0.2 0
1.25 0.2 0
1.2 0.25 0
1.25 0.25 0
1.25 0.2 0
1.3 0.2 0
1.25 0.25 0
1.3 0.25 0
1.3 0.2 0
1.35 0.2 0
1.3 0.25 0
1.35 0.25 0
1.35 0.2 0
1.4 0.2 0
1.35 0.25 0
1.4 0.25 0
1.4 0.2 0
1.45 0.2 0
1.4 0.25 0
1.45 0.25 0
1.45 0.2 0
1.5 0.2 0
1.45 0.25 0
1.5 0.25 0
1.5 0.2 0
1.55 0.2 0
1.5 0.25 0
1.55 0.25 0
1.55 0.2 0
1.6 0.2 0
1.55 0.25 0
1.6 0.25 0
1.6 0.2 0
1.65 0.2 0
1.6 0.25 0
1.65 0.25 0
1.65 0.2 0
1.7 0.2 0
1.65 0.25 0
1.7 0.25 0
1.7 0.2 0
1.75 0.2 0
1.7 0.25 0
1.75 0.25 0
1.75 0.2 0
1.8 0.2 0
1.75 0.25 0
1.8 0.25 0
1.8 0.2 0
1.85 0.2 0
1.8 0.25 0
1.85 0.25 0
1.85 0.2 0
1.9 0.2 0
1.85 0.25 0
1.9 0.25 0
1.9 0.2 0
1.95 0.2 0
1.9 0.25 0
1.95 0.25 0
1.95 0.2 0
2 0.2 0
1.95 0.25 0
2 0.25 0
0 0.25 0
0.05 0.25 0
0 0.3 0
0.05 0.3 0
0.05 0.25 0
0.1 0.25 0
0.05 0.3 0
0.1 0.3 0
0.1 0.25 0
0.15 0.25 0
0.1 0.3 0
0.15 0.3 0
0.15 0.25 0
0.2 0.25 0
0.15 0.3 0
0.2 0.3 0
0.2 0.25 0
0.25 0.25 0
0.2 0.3 0
0.25 0.3 0
0.25 0.25 0
0.3 0.25 0
0.25 0.3 0
0.3 0.3 0
0.3 0.25 0
0.35 0.25 0
0.3 0.3 0
0.35 0.3 0
0.35 0.25 0
0.4 0.25 0
0.35 0.3 0
0.4 0.3 0
0.4 0.25 0
0.45 0.25 0
0.4 0.3 0
0.45 0.3 0
0.45 0.25 0
0.5 0.25 0
0.45 0.3 0
0.5 0.3 0
0.5 0.25 0
0.55 0.25 0
0.5 0.3 0
0.55 0.3 0
0.55 0.25 0
0.6 0.25 0
0.55 0.3 0
0.6 0.3 0
0.6 0.25 0
0.65 0.25 0
0.6 0.3 0
0.65 0.3 0
0.65 0.25 0
0.7 0.25 0
0.65 0.3 0
0.7 0.3 0
0.7 0.25 0
0.75 0.25 0
0.7 0.3 0
0.75 0.3 0
0.75 0.25 0
0.8 0.25 0
0.75 0.3 0
0.8 0.3 0
0.8 0.25 0
0.85 0.25 0
0.8 0.3 0
0.85 0.3 0
0.85 0.25 0
0.9 0.25 0
0.85 0.3 0
0.9 0.3 0
0.9 0.25 0
0.95 0.25 0
0.9 0.3 0
0.95 0.3 0
0.95 0.25 0
1 0.25 0
0.95 0.3 0
1 0.3 0
1 0.25 0
1.05 0.25 0
1 0.3 0
1.05 0.3 0
1.05 0.25 0
1.1 0.25 0
1.05 0.3 0
1.1 0.3 0
1.1 0.25 0
1.15 0.25 0
1.1 0.3 0
1.15 0.3 0
1.15 0.25 0
1.2 0.25 0
1.15 0.3 0
1.2 0.3 0
1.2 0.25 0
1.25 0.25 0
1.2 0.3 0
1.25 0.3 0
1.25 0.25 0
1.3 0.25 0
1.25 0.3 0
1.3 0.3 0
1.3 0.25 0
1.35 0.25 0
1.3 0.3 0
1.35 0.3 0
1.35 0.25 0
1.4 0.25 0
1.35 0.3 0
1.4 0.3 0
1.4 0.25 0
1.45 0.25 0
1.4 0.3 0
1.45 0.3 0
1.45 0.25 0
1.5 0.25 0
[...]
POINT_DATA 3200
SCALARS x_displacement double 1
LOOKUP_TABLE default
0 -1.86516 0 -1.01378 -1.86516 -3.18044 -1.01378 -2.10771 -3.18044 -4.20988 -2.10771 -3.02833 -4.20988 -5.08384 -3.02833 -3.80394 -5.08384 -5.88041 -3.80394 -4.49532 -5.88041 -6.65739 -4.49532 -5.1653 -6.65739 -7.44138 -5.1653 -5.85117 -7.44138 -8.24138 -5.85117 -6.55986 -8.24138 -9.05869 -6.55986 -7.2874 -9.05869 -9.88926 -7.2874 -8.02682 -9.88926 -10.7258 -8.02682 -8.77291 -10.7258 -11.5617 -8.77291 -9.52162 -11.5617 -12.3922 -9.52162 -10.2693 -12.3922 -13.2147 -10.2693 -11.0121 -13.2147 -14.0283 -11.0121 -11.7459 -14.0283 -14.8331 -11.7459 -12.4665 -14.8331 -15.6295 -12.4665 -13.1696 -15.6295 -16.4176 -13.1696 -13.8512 -16.4176 -17.1963 -13.8512 -14.508 -17.1963 -17.9624 -14.508 -15.1376 -17.9624 -18.7085 -15.1376 -15.7384 -18.7085 -19.4201 -15.7384 -16.3094 -19.4201 -20.0707 -16.3094 -16.8508 -20.0707 -20.6182 -16.8508 -17.3613 -20.6182 -21.0545 -17.3613 -17.8596 -21.0545 -21.4594 -17.8596 -18.4247 -21.4594 -21.8849 -18.4247 -19.0704 -21.8849 -22.4782 -19.0704 -19.6667 -22.4782 -23.1072 -19.6667 -20.0979 -23.1072 -23.1875 -20.0979 -20.5577 -23.1875 -23.093 -20.5577 -21.0497 -23.093 -24.4819 -21.0497 -21.003 -24.4819 -24.9492 -21.003 -21.1743 -24.9492 -25.1136 -21.1743 -21.767 -25.1136 -25.28 -21.767 -21.9912 -25.28 -25.3147 -21.9912 -22.1495 -25.3147 -25.2912 -22.1495 -22.2092 -25.2912 -25.2411 -22.2092 -22.2298 -25.2411 -25.2046 -22.2298 -22.2406 -25.2046 -25.1954 -22.2406 -22.244 0 -1.01378 0 -0.67061 -1.01378 -2.10771 -0.67061 -1.48622 -2.10771 -3.02833 -1.48622 -2.14654 -3.02833 -3.80394 -2.14654 -2.73048 -3.80394 -4.49532 -2.73048 -3.23049 -4.49532 -5.1653 -3.23049 -3.68952 -5.1653 -5.85117 -3.68952 -4.22616 -5.85117 -6.55986 -4.22616 -4.84406 -6.55986 -7.2874 -4.84406 -5.49233 -7.2874 -8.02682 -5.49233 -6.15245 -8.02682 -8.77291 -6.15245 -6.81949 -8.77291 -9.52162 -6.81949 -7.49241 -9.52162 -10.2693 -7.49241 -8.16884 -10.2693 -11.0121 -8.16884 -8.84386 -11.0121 -11.7459 -8.84386 -9.51046 -11.7459 -12.4665 -9.51046 -10.1593 -12.4665 -13.1696 -10.1593 -10.7807 -13.1696 -13.8512 -10.7807 -11.3666 -13.8512 -14.508 -11.3666 -11.9118 -14.508 -15.1376 -11.9118 -12.4155 -15.1376 -15.7384 -12.4155 -12.8839 -15.7384 -16.3094 -12.8839 -13.3313 -16.3094 -16.8508 -13.3313 -13.7829 -16.8508 -17.3613 -13.7829 -14.2824 -17.3613 -17.8596 -14.2824 -14.8733 -17.8596 -18.4247 -14.8733 -15.5035 -18.4247 -19.0704 -15.5035 -16.049 -19.0704 -19.6667 -16.049 -16.5326 -19.6667 -20.0979 -16.5326 -17.0483 -20.0979 -20.5577 -17.0483 -17.5913 -20.5577 -21.0497 -17.5913 -17.9775 -21.0497 -21.003 -17.9775 -18.3498 -21.003 -21.1743 -18.3498 -18.6897 -21.1743 -21.767 -18.6897 -18.5309 -21.767 -21.9912 -18.5309 -19.0518 -21.9912 -22.1495 -19.0518 -19.1485 -22.1495 -22.2092 -19.1485 -19.1921 -22.2092 -22.2298 -19.1921 -19.278 -22.2298 -22.2406 -19.278 -19.3055 -22.2406 -22.244 -19.3055 -19.318 0 -0.67061 0 -0.482122 -0.67061 -1.48622 -0.482122 -0.871539 -1.48622 -2.14654 -0.871539 -1.39697 -2.14654 -2.73048 -1.39697 -1.92472 -2.73048 -3.23049 -1.92472 -2.32462 -3.23049 -3.68952 -2.32462 -2.68692 -3.68952 -4.22616 -2.68692 -3.04807 -4.22616 -4.84406 -3.04807 -3.46355 -4.84406 -5.49233 -3.46355 -3.96684 -5.49233 -6.15245 -3.96684 -4.53187 -6.15245 -6.81949 -4.53187 -5.14827 -6.81949 -7.49241 -5.14827 -5.81494 -7.49241 -8.16884 -5.81494 -6.52682 -8.16884 -8.84386 -6.52682 -7.26168 -8.84386 -9.51046 -7.26168 -7.98208 -9.51046 -10.1593 -7.98208 -8.65284 -10.1593 -10.7807 -8.65284 -9.25081 -10.7807 -11.3666 -9.25081 -9.76753 -11.3666 -11.9118 -9.76753 -10.2065 -11.9118 -12.4155 -10.2065 -10.5805 -12.4155 -12.8839 -10.5805 -10.9059 -12.8839 -13.3313 -10.9059 -11.1971 -13.3313 -13.7829 -11.1971 -11.47 -13.7829 -14.2824 -11.47 -11.7551 -14.2824 -14.8733 -11.7551 -12.0865 -14.8733 -15.5035 -12.0865 -12.4637 -15.5035 -16.049 -12.4637 -12.9007 -16.049 -16.5326 -12.9007 -13.4672 -16.5326 -17.0483 -13.4672 -14.0209 -17.0483 -17.5913 -14.0209 -14.4823 -17.5913 -17.9775 -14.4823 -14.9477 -17.9775 -18.3498 -14.9477 -15.3919 -18.3498 -18.6897 -15.3919 -15.7234 -18.6897 -18.5309 -15.7234 -16.0223 -18.5309 -19.0518 -16.0223 -16.112 -19.0518 -19.1485 -16.112 -16.1102 -19.1485 -19.1921 -16.1102 -16.3547 -19.1921 -19.278 -16.3547 -16.4269 -19.278 -19.3055 -16.4269 -16.4693 -19.3055 -19.318 -16.4693 -16.4797 0 -0.482122 0 -0.00503401 -0.482122 -0.871539 -0.00503401 -0.276873 -0.871539 -1.39697 -0.276873 -0.846096 -1.39697 -1.92472 -0.846096 -1.25581 -1.92472 -2.32462 -1.25581 -1.64744 -2.32462 -2.68692 -1.64744 -2.00996 -2.68692 -3.04807 -2.00996 -2.3721 -3.04807 -3.46355 -2.3721 -2.78937 -3.46355 -3.96684 -2.78937 -3.25966 -3.96684 -4.53187 -3.25966 -3.81314 -4.53187 -5.14827 -3.81314 -4.46714 -5.14827 -5.81494 -4.46714 -5.20476 -5.81494 -6.52682 -5.20476 -5.98528 -6.52682 -7.26168 -5.98528 -6.74655 -7.26168 -7.98208 -6.74655 -7.43061 -7.98208 -8.65284 -7.43061 -8.00645 -8.65284 -9.25081 -8.00645 -8.46772 -9.25081 -9.76753 -8.46772 -8.82429 -9.76753 -10.2065 -8.82429 -9.0941 -10.2065 -10.5805 -9.0941 -9.29452 -10.5805 -10.9059 -9.29452 -9.43804 -10.9059 -11.1971 -9.43804 -9.53778 -11.1971 -11.47 -9.53778 -9.61594 -11.47 -11.7551 -9.61594 -9.69966 -11.7551 -12.0865 -9.69966 -9.80576 -12.0865 -12.4637 -9.80576 -9.93208 -12.4637 -12.9007 -9.93208 -10.1211 -12.9007 -13.4672 -10.1211 -10.4807 -13.4672 -14.0209 -10.4807 -10.9277 -14.0209 -14.4823 -10.9277 -11.4714 -14.4823 -14.9477 -11.4714 -11.9496 -14.9477 -15.3919 -11.9496 -12.3729 -15.3919 -15.7234 -12.3729 -12.8165 -15.7234 -16.0223 -12.8165 -13.1211 -16.0223 -16.112 -13.1211 -13.3564 -16.112 -16.1102 -13.3564 -13.6091 -16.1102 -16.3547 -13.6091 -13.442 -16.3547 -16.4269 -13.442 -13.7918 -16.4269 -16.4693 -13.7918 -13.7949 -16.4693 -16.4797 -13.7949 -13.716 0 -0.00503401 0 0.183878 -0.00503401 -0.276873 0.183878 -0.674133 -0.276873 -0.846096 -0.674133 -0.365952 -0.846096 -1.25581 -0.365952 -0.68346 -1.25581 -1.64744 -0.68346 -1.02523 -1.64744 -2.00996 -1.02523 -1.35136 -2.00996 -2.3721 -1.35136 -1.70565 -2.3721 -2.78937 -1.70565 -2.04771 -2.78937 -3.25966 -2.04771 -2.43351 -3.25966 -3.81314 -2.43351 -2.90273 -3.81314 -4.46714 -2.90273 -3.47103 -4.46714 -5.20476 -3.47103 -4.13567 -5.20476 -5.98528 -4.13567 -4.87646 -5.98528 -6.74655 -4.87646 -5.656 -6.74655 -7.43061 -5.656 -6.40031 -7.43061 -8.00645 -6.40031 -7.01414 -8.00645 -8.46772 -7.01414 -7.45216 -8.46772 -8.82429 -7.45216 -7.73196 -8.82429 -9.0941 -7.73196 -7.88958 -9.0941 -9.29452 -7.88958 -7.95567 -9.29452 -9.43804 -7.95567 -7.95627 -9.43804 -9.53778 -7.95627 -7.91929 -9.53778 -9.61594 -7.91929 -7.8718 -9.61594 -9.69966 -7.8718 -7.8326 -9.69966 -9.80576 -7.8326 -7.81371 -9.80576 -9.93208 -7.81371 -7.83404 -9.93208 -10.1211 -7.83404 -7.90824 -10.1211 -10.4807 -7.90824 -7.98537 -10.4807 -10.9277 -7.98537 -8.12887 -10.9277 -11.4714 -8.12887 -8.49866 -11.4714 -11.9496 -8.49866 -8.93952 -11.9496 -12.3729 -8.93952 -9.49639 -12.3729 -12.8165 -9.49639 -9.91353 -12.8165 -13.1211 -9.91353 -10.2831 -13.1211 -13.3564 -10.2831 -10.6766 -13.3564 -13.6091 -10.6766 -10.9719 -13.6091 -13.442 -10.9719 -11.2176 -13.442 -13.7918 -11.2176 -11.2045 -13.7918 -13.7949 -11.2045 -11.2 -13.7949 -13.716 -11.2 -11.3277 0 0.183878 0 0.235053 0.183878 -0.674133 0.235053 1.03531 -0.674133 -0.365952 1.03531 -0.0416166 -0.365952 -0.68346 -0.0416166 -0.253158 -0.68346 -1.02523 -0.253158 -0.446934 -1.02523 -1.35136 -0.446934 -0.735875 -1.35136 -1.70565 -0.735875 -1.00295 -1.70565 -2.04771 -1.00295 -1.28468 -2.04771 -2.43351 -1.28468 -1.61528 -2.43351 -2.90273 -1.61528 -2.00839 -2.90273 -3.47103 -2.00839 -2.49002 -3.47103 -4.13567 -2.49002 -3.06152 -4.13567 -4.87646 -3.06152 -3.7032 -4.87646 -5.656 -3.7032 -4.38893 -5.656 -6.40031 -4.38893 -5.07918 -6.40031 -7.01414 -5.07918 -5.70036 -7.01414 -7.45216 -5.70036 -6.16271 -7.45216 -7.73196 -6.16271 -6.43001 -7.73196 -7.88958 -6.43001 -6.53066 -7.88958 -7.95567 -6.53066 -6.51521 -7.95567 -7.95627 -6.51521 -6.43194 -7.95627 -7.91929 -6.43194 -6.31907 -7.91929 -7.8718 -6.31907 -6.20188 -7.8718 -7.8326 -6.20188 -6.09493 -7.8326 -7.81371 -6.09493 -6.01043 -7.81371 -7.83404 -6.01043 -5.95848 -7.83404 -7.90824 -5.95848 -5.92792 -7.90824 -7.98537 -5.92792 -5.92197 -7.98537 -8.12887 -5.92197 -5.9603 -8.12887 -8.49866 -5.9603 -5.94515 -8.49866 -8.93952 -5.94515 -6.16505 -8.93952 -9.49639 -6.16505 -6.65817 -9.49639 -9.91353 -6.65817 -7.12507 -9.91353 -10.2831 -7.12507 -7.60979 -10.2831 -10.6766 -7.60979 -8.02978 -10.6766 -10.9719 -8.02978 -8.45516 -10.9719 -11.2176 -8.45516 -8.75781 -11.2176 -11.2045 -8.75781 -9.03695 -11.2045 -11.2 -9.03695 -9.4035 -11.2 -11.3277 -9.4035 -9.01494 0 0.235053 0 0.170431 0.235053 1.03531 0.170431 0.174318 1.03531 -0.0416166 0.174318 0.404834 -0.0416166 -0.253158 0.404834 0.282348 -0.253158 -0.446934 0.282348 -0.0089457 -0.446934 -0.735875 -0.0089457 -0.13892 -0.735875 -1.00295 -0.13892 -0.349383 -1.00295 -1.28468 -0.349383 -0.590431 -1.28468 -1.61528 -0.590431 -0.863543 -1.61528 -2.00839 -0.863543 -1.1922 -2.00839 -2.49002 -1.1922 -1.59508 -2.49002 -3.06152 -1.59508 -2.07256 -3.06152 -3.7032 -2.07256 -2.60598 -3.7032 -4.38893 -2.60598 -3.16891 -4.38893 -5.07918 -3.16891 -3.73175 -5.07918 -5.70036 -3.73175 -4.25347 -5.70036 -6.16271 -4.25347 -4.67095 -6.16271 -6.43001 -4.67095 -4.92169 -6.43001 -6.53066 -4.92169 -5.00037 -6.53066 -6.51521 -5.00037 -4.95583 -6.51521 -6.43194 -4.95583 -4.84381 -6.43194 -6.31907 -4.84381 -4.7049 -6.31907 -6.20188 -4.7049 -4.56544 -6.20188 -6.09493 -4.56544 -4.44382 -6.09493 -6.01043 -4.44382 -4.35153 -6.01043 -5.95848 -4.35153 -4.28391 -5.95848 -5.92792 -4.28391 -4.22457 -5.92792 -5.92197 -4.22457 -4.16372 -5.92197 -5.9603 -4.16372 -4.08299 -5.9603 -5.94515 -4.08299 -4.0454 -5.94515 -6.16505 -4.0454 -4.01834 -6.16505 -6.65817 -4.01834 -4.01977 -6.65817 -7.12507 -4.01977 -4.50515 -7.12507 -7.60979 -4.50515 -5.01286 -7.60979 -8.02978 -5.01286 -5.56552 -8.02978 -8.45516 -5.56552 -5.98064 -8.45516 -8.75781 -5.98064 -6.36521 -8.75781 -9.03695 -6.36521 -6.80497 -9.03695 -9.4035 -6.80497 -7.19144 -9.4035 -9.01494 -7.19144 -7.70954 0 0.170431 0 0.04858 0.170431 0.174318 0.04858 0.154463 0.174318 0.404834 0.154463 0.24334 0.404834 0.282348 0.24334 0.420443 0.282348 -0.0089457 0.420443 0.624017 -0.0089457 -0.13892 0.624017 0.293114 -0.13892 -0.349383 0.293114 0.118368 -0.349383 -0.590431 0.118368 -0.0573959 -0.590431 -0.863543 -0.0573959 -0.268028 -0.863543 -1.1922 -0.268028 -0.527773 -1.1922 -1.59508 -0.527773 -0.846045 -1.59508 -2.07256 -0.846045 -1.21681 -2.07256 -2.60598 -1.21681 -1.62061 -2.60598 -3.16891 -1.62061 -2.03603 -3.16891 -3.73175 -2.03603 -2.44271 -3.73175 -4.25347 -2.44271 -2.8153 -4.25347 -4.67095 -2.8153 -3.11679 -4.67095 -4.92169 -3.11679 -3.30557 -4.92169 -5.00037 -3.30557 -3.36597 -5.00037 -4.95583 -3.36597 -3.3244 -4.95583 -4.84381 -3.3244 -3.22406 -4.84381 -4.7049 -3.22406 -3.10212 -4.7049 -4.56544 -3.10212 -2.98563 -4.56544 -4.44382 -2.98563 -2.8912 -4.44382 -4.35153 -2.8912 -2.82094 -4.35153 -4.28391 -2.82094 -2.76369 -4.28391 -4.22457 -2.76369 -2.70563 -4.22457 -4.16372 -2.70563 -2.63269 -4.16372 -4.08299 -2.63269 -2.54079 -4.08299 -4.0454 -2.54079 -2.42055 -4.0454 -4.01834 -2.42055 -2.27958 -4.01834 -4.01977 -2.27958 -2.21865 -4.01977 -4.50515 -2.21865 -2.12938 -4.50515 -5.01286 -2.12938 -2.65557 -5.01286 -5.56552 -2.65557 -3.20492 -5.56552 -5.98064 -3.20492 -3.63719 -5.98064 -6.36521 -3.63719 -4.08387 -6.36521 -6.80497 -4.08387 -4.49994 -6.80497 -7.19144 -4.49994 -4.94632 -7.19144 -7.70954 -4.94632 -5.29705 0 0.04858 0 0.0306368 0.04858 0.154463 0.0306368 0.0745705 0.154463 0.24334 0.0745705 0.152971 0.24334 0.420443 0.152971 0.25688 0.420443 0.624017 0.25688 0.46786 0.624017 0.293114 0.46786 0.440075 0.293114 0.118368 0.440075 0.287738 0.118368 -0.0573959 0.287738 0.184409 -0.0573959 -0.268028 0.184409 0.0559245 -0.268028 -0.527773 0.0559245 -0.114968 -0.527773 -0.846045 -0.114968 -0.317097 -0.846045 -1.21681 -0.317097 -0.535792 -1.21681 -1.62061 -0.535792 -0.761818 -1.62061 -2.03603 -0.761818 -0.988151 -2.03603 -2.44271 -0.988151 -1.20587 -2.44271 -2.8153 -1.20587 -1.40157 -2.8153 -3.11679 -1.40157 -1.55716 -3.11679 -3.30557 -1.55716 -1.65506 -3.30557 -3.36597 -1.65506 -1.68782 -3.36597 -3.3244 -1.68782 -1.66399 -3.3244 -3.22406 -1.66399 -1.60449 -3.22406 -3.10212 -1.60449 -1.53336 -3.10212 -2.98563 -1.53336 -1.46949 -2.98563 -2.8912 -1.46949 -1.42121 -2.8912 -2.82094 -1.42121 -1.38611 -2.82094 -2.76369 -1.38611 -1.35591 -2.76369 -2.70563 -1.35591 -1.32033 -2.70563 -2.63269 -1.32033 -1.27037 -2.63269 -2.54079 -1.27037 -1.19987 -2.54079 -2.42055 -1.19987 -1.10828 -2.42055 -2.27958 -1.10828 -1.0122 -2.27958 -2.21865 -1.0122 -0.914485 -2.21865 -2.12938 -0.914485 -0.89888 -2.12938 -2.65557 -0.89888 -0.808294 -2.65557 -3.20492 -0.808294 -1.09449 -3.20492 -3.63719 -1.09449 -1.50446 -3.63719 -4.08387 -1.50446 -1.86578 -4.08387 -4.49994 -1.86578 -2.25632 -4.49994 -4.94632 -2.25632 -2.63259 -4.94632 -5.29705 -2.63259 -2.73437 0 0.0306368 0 2.43606e-10 0.0306368 0.0745705 2.43606e-10 -4.97809e-10 0.0745705 0.152971 -4.97809e-10 -5.94857e-10 0.152971 0.25688 -5.94857e-10 1.96778e-10 0.25688 0.46786 1.96778e-10 -2.91249e-10 0.46786 0.440075 -2.91249e-10 -8.69908e-11 0.440075 0.287738 -8.69908e-11 -2.29188e-11 0.287738 0.184409 -2.29188e-11 -1.64632e-11 0.184409 0.0559245 -1.64632e-11 -1.53543e-11 0.0559245 -0.114968 -1.53543e-11 -1.43057e-11 -0.114968 -0.317097 -1.43057e-11 -1.29908e-11 -0.317097 -0.535792 -1.29908e-11 -1.1216e-11 -0.535792 -0.761818 -1.1216e-11 -9.2334e-12 -0.761818 -0.988151 -9.2334e-12 -6.99778e-12 -0.988151 -1.20587 -6.99778e-12 -5.16064e-12 -1.20587 -1.40157 -5.16064e-12 -3.83472e-12 -1.40157 -1.55716 -3.83472e-12 -3.42011e-12 -1.55716 -1.65506 -3.42011e-12 -3.42393e-12 -1.65506 -1.68782 -3.42393e-12 -3.10754e-12 -1.68782 -1.66399 -3.10754e-12 -3.4349e-12 -1.66399 -1.60449 -3.4349e-12 -3.56448e-12 -1.60449 -1.53336 -3.56448e-12 -3.97104e-12 -1.53336 -1.46949 -3.97104e-12 -4.6434e-12 -1.46949 -1.42121 -4.6434e-12 -5.59544e-12 -1.42121 -1.38611 -5.59544e-12 -7.19722e-12 -1.38611 -1.35591 -7.19722e-12 -8.26956e-12 -1.35591 -1.32033 -8.26956e-12 -9.66671e-12 -1.32033 -1.27037 -9.66671e-12 -9.83662e-12 -1.27037 -1.19987 -9.83662e-12 -1.01614e-11 -1.19987 -1.10828 -1.01614e-11 -8.16355e-12 -1.10828 -1.0122 -8.16355e-12 -6.13064e-12 -1.0122 -0.914485 -6.13064e-12 -5.23298e-12 -0.914485 -0.89888 -5.23298e-12 -7.59436e-12 -0.89888 -0.808294 -7.59436e-12 5.35027e-13 -0.808294 -1.09449 5.35027e-13 5.46501e-12 -1.09449 -1.50446 5.46501e-12 8.45949e-12 -1.50446 -1.86578 8.45949e-12 4.50757e-12 -1.86578 -2.25632 4.50757e-12 1.42762e-12 -2.25632 -2.63259 1.42762e-12 -5.38293e-13 -2.63259 -2.73437 -5.38293e-13 -1.55472e-12 0 2.43606e-10 0 -0.0306368 2.43606e-10 -4.97809e-10 -0.0306368 -0.0745705 -4.97809e-10 -5.94857e-10 -0.0745705 -0.152971 -5.94857e-10 1.96778e-10 -0.152971 -0.25688 1.96778e-10 -2.91249e-10 -0.25688 -0.46786 -2.91249e-10 -8.69908e-11 -0.46786 -0.440075 -8.69908e-11 -2.29188e-11 -0.440075 -0.287738 -2.29188e-11 -1.64632e-11 -0.287738 -0.184409 -1.64632e-11 -1.53543e-11 -0.184409 -0.0559245 -1.53543e-11 -1.43057e-11 -0.0559245 0.114968 -1.43057e-11 -1.29908e-11 0.114968 0.317097 -1.29908e-11 -1.1216e-11 0.317097 0.535792 -1.1216e-11 -9.2334e-12 0.535792 0.761818 -9.2334e-12 -6.99778e-12 0.761818 0.988151 -6.99778e-12 -5.16064e-12 0.988151 1.20587 -5.16064e-12 -3.83472e-12 1.20587 1.40157 -3.83472e-12 -3.42011e-12 1.40157 1.55716 -3.42011e-12 -3.42393e-12 1.55716 1.65506 -3.42393e-12 -3.10754e-12 1.65506 1.68782 -3.10754e-12 -3.4349e-12 1.68782 1.66399 -3.4349e-12 -3.56448e-12 1.66399 1.60449 -3.56448e-12 -3.97104e-12 1.60449 1.53336 -3.97104e-12 -4.6434e-12 1.53336 1.46949 -4.6434e-12 -5.59544e-12 1.46949 1.42121 -5.59544e-12 -7.19722e-12 1.42121 1.38611 -7.19722e-12 -8.26956e-12 1.38611 1.35591 -8.26956e-12 -9.66671e-12 1.35591 1.32033 -9.66671e-12 -9.83662e-12 1.32033 1.27037 -9.83662e-12 -1.01614e-11 1.27037 1.19987 -1.01614e-11 -8.16355e-12 1.19987 1.10828 -8.16355e-12 -6.13064e-12 1.10828 1.0122 -6.13064e-12 -5.23298e-12 1.0122 0.914485 -5.23298e-12 -7.59436e-12 0.914485 0.89888 -7.59436e-12 5.35027e-13 0.89888 0.808294 5.35027e-13 5.46501e-12 0.808294 1.09449 5.46501e-12 8.45949e-12 1.09449 1.50446 8.45949e-12 4.50757e-12 1.50446 1.86578 4.50757e-12 1.42762e-12 1.86578 2.25632 1.42762e-12 -5.38293e-13 2.25632 2.63259 -5.38293e-13 -1.55472e-12 2.63259 2.73437 0 -0.0306368 0 -0.04858 -0.0306368 -0.0745705 -0.04858 -0.154463 -0.0745705 -0.152971 -0.154463 -0.24334 -0.152971 -0.25688 -0.24334 -0.420443 -0.25688 -0.46786 -0.420443 -0.624017 -0.46786 -0.440075 -0.624017 -0.293114 -0.440075 -0.287738 -0.293114 -0.118368 -0.287738 -0.184409 -0.118368 0.0573959 -0.184409 -0.0559245 0.0573959 0.268028 -0.0559245 0.114968 0.268028 0.527773 0.114968 0.317097 0.527773 0.846045 0.317097 0.535792 0.846045 1.21681 0.535792 0.761818 1.21681 1.62061 0.761818 0.988151 1.62061 2.03603 0.988151 1.20587 2.03603 2.44271 1.20587 1.40157 2.44271 2.8153 1.40157 1.55716 2.8153 3.11679 1.55716 1.65506 3.11679 3.30557 1.65506 1.68782 3.30557 3.36597 1.68782 1.66399 3.36597 3.3244 1.66399 1.60449 3.3244 3.22406 1.60449 1.53336 3.22406 3.10212 1.53336 1.46949 3.10212 2.98563 1.46949 1.42121 2.98563 2.8912 1.42121 1.38611 2.8912 2.82094 1.38611 1.35591 2.82094 2.76369 1.35591 1.32033 2.76369 2.70563 1.32033 1.27037 2.70563 2.63269 1.27037 1.19987 2.63269 2.54079 1.19987 1.10828 2.54079 2.42055 1.10828 1.0122 2.42055 2.27958 1.0122 0.914485 2.27958 2.21865 0.914485 0.89888 2.21865 2.12938 0.89888 0.808294 2.12938 2.65557 0.808294 1.09449 2.65557 3.20492 1.09449 1.50446 3.20492 3.63719 1.50446 1.86578 3.63719 4.08387 1.86578 2.25632 4.08387 4.49994 2.25632 2.63259 4.49994 4.94632 2.63259 2.73437 4.94632 5.29705 0 -0.04858 0 -0.170431 -0.04858 -0.154463 -0.170431 -0.174318 -0.154463 -0.24334 -0.174318 -0.404834 -0.24334 -0.420443 -0.404834 -0.282348 -0.420443 -0.624017 -0.282348 0.0089457 -0.624017 -0.293114 0.0089457 0.13892 -0.293114 -0.118368 0.13892 0.349383 -0.118368 0.0573959 0.349383 0.590431 0.0573959 0.268028 0.590431 0.863543 0.268028 0.527773 0.863543 1.1922 0.527773 0.846045 1.1922 1.59508 0.846045 1.21681 1.59508 2.07256 1.21681 1.62061 2.07256 2.60598 1.62061 2.03603 2.60598 3.16891 2.03603 2.44271 3.16891 3.73175 2.44271 2.8153 3.73175 4.25347 2.8153 3.11679 4.25347 4.67095 3.11679 3.30557 4.67095 4.92169 3.30557 3.36597 4.92169 5.00037 3.36597 3.3244 5.00037 4.95583 3.3244 3.22406 4.95583 4.84381 3.22406 3.10212 4.84381 4.7049 3.10212 2.98563 4.7049 4.56544 2.98563 2.8912 4.56544 4.44382 2.8912 2.82094 4.44382 4.35153 2.82094 2.76369 4.35153 4.28391 2.76369 2.70563 4.28391 4.22457 2.70563 2.63269 4.22457 4.16372 2.63269 2.54079 4.16372 4.08299 2.54079 2.42055 4.08299 4.0454 2.42055 2.27958 4.0454 4.01834 2.27958 2.21865 4.01834 4.01977 2.21865 2.12938 4.01977 4.50515 2.12938 2.65557 4.50515 5.01286 2.65557 3.20492 5.01286 5.56552 3.20492 3.63719 5.56552 5.98064 3.63719 4.08387 5.98064 6.36521 4.08387 4.49994 6.36521 6.80497 4.49994 4.94632 6.80497 7.19144 4.94632 5.29705 7.19144 7.70954 0 -0.170431 0 -0.235053 -0.170431 -0.174318 -0.235053 -1.03531 -0.174318 -0.404834 -1.03531 0.0416166 -0.404834 -0.282348 0.0416166 0.253158 -0.282348 0.0089457 0.253158 0.446934 0.0089457 0.13892 0.446934 0.735875 0.13892 0.349383 0.735875 1.00295 0.349383 0.590431 1.00295 1.28468 0.590431 0.863543 1.28468 1.61528 0.863543 1.1922 1.61528 2.00839 1.1922 1.59508 2.00839 2.49002 1.59508 2.07256 2.49002 3.06152 2.07256 2.60598 3.06152 3.7032 2.60598 3.16891 3.7032 4.38893 3.16891 3.73175 4.38893 5.07918 3.73175 4.25347 5.07918 5.70036 4.25347 4.67095 5.70036 6.16271 4.67095 4.92169 6.16271 6.43001 4.92169 5.00037 6.43001 6.53066 5.00037 4.95583 6.53066 6.51521 4.95583 4.84381 6.51521 6.43194 4.84381 4.7049 6.43194 6.31907 4.7049 4.56544 6.31907 6.20188 4.56544 4.44382 6.20188 6.09493 4.44382 4.35153 6.09493 6.01043 4.35153 4.28391 6.01043 5.95848 4.28391 4.22457 5.95848 5.92792 4.22457 4.16372 5.92792 5.92197 4.16372 4.08299 5.92197 5.9603 4.08299 4.0454 5.9603 5.94515 4.0454 4.01834 5.94515 6.16505 4.01834 4.01977 6.16505 6.65