# vtk DataFile Version 3.0
#This file was generated by the deal.II library on 2015/8/30 at 10:13:44
ASCII
DATASET UNSTRUCTURED_GRID

POINTS 20 double
1 0 0
2 0 0
1 1 0
2 1 0
0 0 0
0.5 0 0
0 0.5 0
0.5 0.5 0
0.5 0 0
1 0 0
0.5 0.5 0
1 0.5 0
0 0.5 0
0.5 0.5 0
0 1 0
0.5 1 0
0.5 0.5 0
1 0.5 0
0.5 1 0
1 1 0

CELLS 5 25
4	0	1	3	2
4	4	5	7	6
4	8	9	11	10
4	12	13	15	14
4	16	17	19	18

CELL_TYPES 5
 9 9 9 9 9
POINT_DATA 20
SCALARS x_displacement double 1
LOOKUP_TABLE default
-61.7138 -87.1436 61.7138 87.1436 0 -30.0619 0 1.0134e-13 -30.0619 -61.7138 1.0134e-13 6.39488e-14 0 1.0134e-13 0 30.0619 1.0134e-13 6.39488e-14 30.0619 61.7138 
SCALARS y_displacement double 1
LOOKUP_TABLE default
-80.0209 -262.108 -80.0209 -262.108 0 -25.9351 0 -19.5787 -25.9351 -80.0209 -19.5787 -80.0209 0 -19.5787 0 -25.9351 -19.5787 -80.0209 -25.9351 -80.0209 
