# vtk DataFile Version 3.0
#This file was generated by the deal.II library on 2015/9/1 at 17:12:57
ASCII
DATASET UNSTRUCTURED_GRID

POINTS 11912 double
0 0 0
0.05 0 0
0 0.05 0
0.05 0.05 0
0.05 0 0
0.1 0 0
0.05 0.05 0
0.1 0.05 0
0.1 0 0
0.15 0 0
0.1 0.05 0
0.15 0.05 0
0.15 0 0
0.2 0 0
0.15 0.05 0
0.2 0.05 0
0.2 0 0
0.25 0 0
0.2 0.05 0
0.25 0.05 0
0.25 0 0
0.3 0 0
0.25 0.05 0
0.3 0.05 0
0.3 0 0
0.35 0 0
0.3 0.05 0
0.35 0.05 0
0.35 0 0
0.4 0 0
0.35 0.05 0
0.4 0.05 0
0.4 0 0
0.45 0 0
0.4 0.05 0
0.45 0.05 0
0.45 0 0
0.5 0 0
0.45 0.05 0
0.5 0.05 0
0.5 0 0
0.55 0 0
0.5 0.05 0
0.55 0.05 0
0.55 0 0
0.6 0 0
0.55 0.05 0
0.6 0.05 0
0.6 0 0
0.65 0 0
0.6 0.05 0
0.65 0.05 0
0.65 0 0
0.7 0 0
0.65 0.05 0
0.7 0.05 0
0.7 0 0
0.75 0 0
0.7 0.05 0
0.75 0.05 0
0.75 0 0
0.8 0 0
0.75 0.05 0
0.8 0.05 0
0.8 0 0
0.85 0 0
0.8 0.05 0
0.85 0.05 0
0.85 0 0
0.9 0 0
0.85 0.05 0
0.9 0.05 0
0.9 0 0
0.95 0 0
0.9 0.05 0
0.95 0.05 0
0.95 0 0
1 0 0
0.95 0.05 0
1 0.05 0
1 0 0
1.05 0 0
1 0.05 0
1.05 0.05 0
1.05 0 0
1.1 0 0
1.05 0.05 0
1.1 0.05 0
1.1 0 0
1.15 0 0
1.1 0.05 0
1.15 0.05 0
1.15 0 0
1.2 0 0
1.15 0.05 0
1.2 0.05 0
1.2 0 0
1.25 0 0
1.2 0.05 0
1.25 0.05 0
1.25 0 0
1.3 0 0
1.25 0.05 0
1.3 0.05 0
0.1 0.05 0
0.15 0.05 0
0.1 0.1 0
0.15 0.1 0
0.15 0.05 0
0.2 0.05 0
0.15 0.1 0
0.2 0.1 0
0.2 0.05 0
0.25 0.05 0
0.2 0.1 0
0.25 0.1 0
0.25 0.05 0
0.3 0.05 0
0.25 0.1 0
0.3 0.1 0
0.2 0.1 0
0.25 0.1 0
0.2 0.15 0
0.25 0.15 0
0.25 0.1 0
0.3 0.1 0
0.25 0.15 0
0.3 0.15 0
0.85 0.45 0
0.9 0.45 0
0.85 0.5 0
0.9 0.5 0
0.9 0.45 0
0.95 0.45 0
0.9 0.5 0
0.95 0.5 0
1.45 0.45 0
1.5 0.45 0
1.45 0.5 0
1.5 0.5 0
1.9 0.45 0
1.95 0.45 0
1.9 0.5 0
1.95 0.5 0
1.95 0.45 0
2 0.45 0
1.95 0.5 0
2 0.5 0
0.65 0.5 0
0.7 0.5 0
0.65 0.55 0
0.7 0.55 0
0.85 0.5 0
0.9 0.5 0
0.85 0.55 0
0.9 0.55 0
0.9 0.5 0
0.95 0.5 0
0.9 0.55 0
0.95 0.55 0
1.9 0.5 0
1.95 0.5 0
1.9 0.55 0
1.95 0.55 0
1.95 0.5 0
2 0.5 0
1.95 0.55 0
2 0.55 0
0.2 0.85 0
0.25 0.85 0
0.2 0.9 0
0.25 0.9 0
0.25 0.85 0
0.3 0.85 0
0.25 0.9 0
0.3 0.9 0
0.1 0.9 0
0.15 0.9 0
0.1 0.95 0
0.15 0.95 0
0.15 0.9 0
0.2 0.9 0
0.15 0.95 0
0.2 0.95 0
0.2 0.9 0
0.25 0.9 0
0.2 0.95 0
0.25 0.95 0
0.25 0.9 0
0.3 0.9 0
0.25 0.95 0
0.3 0.95 0
0 0.95 0
0.05 0.95 0
0 1 0
0.05 1 0
0.05 0.95 0
0.1 0.95 0
0.05 1 0
0.1 1 0
0.1 0.95 0
0.15 0.95 0
0.1 1 0
0.15 1 0
0.15 0.95 0
0.2 0.95 0
0.15 1 0
0.2 1 0
0.2 0.95 0
0.25 0.95 0
0.2 1 0
0.25 1 0
0.25 0.95 0
0.3 0.95 0
0.25 1 0
0.3 1 0
0.3 0.95 0
0.35 0.95 0
0.3 1 0
0.35 1 0
0.35 0.95 0
0.4 0.95 0
0.35 1 0
0.4 1 0
0.4 0.95 0
0.45 0.95 0
0.4 1 0
0.45 1 0
0.45 0.95 0
0.5 0.95 0
0.45 1 0
0.5 1 0
0.5 0.95 0
0.55 0.95 0
0.5 1 0
0.55 1 0
0.55 0.95 0
0.6 0.95 0
0.55 1 0
0.6 1 0
0.6 0.95 0
0.65 0.95 0
0.6 1 0
0.65 1 0
0.65 0.95 0
0.7 0.95 0
0.65 1 0
0.7 1 0
0.7 0.95 0
0.75 0.95 0
0.7 1 0
0.75 1 0
0.75 0.95 0
0.8 0.95 0
0.75 1 0
0.8 1 0
0.8 0.95 0
0.85 0.95 0
0.8 1 0
0.85 1 0
0.85 0.95 0
0.9 0.95 0
0.85 1 0
0.9 1 0
0.9 0.95 0
0.95 0.95 0
0.9 1 0
0.95 1 0
0.95 0.95 0
1 0.95 0
0.95 1 0
1 1 0
1 0.95 0
1.05 0.95 0
1 1 0
1.05 1 0
1.05 0.95 0
1.1 0.95 0
1.05 1 0
1.1 1 0
1.1 0.95 0
1.15 0.95 0
1.1 1 0
1.15 1 0
1.15 0.95 0
1.2 0.95 0
1.15 1 0
1.2 1 0
1.2 0.95 0
1.25 0.95 0
1.2 1 0
1.25 1 0
1.25 0.95 0
1.3 0.95 0
1.25 1 0
1.3 1 0
1.3 0 0
1.325 0 0
1.3 0.025 0
1.325 0.025 0
1.325 0 0
1.35 0 0
1.325 0.025 0
1.35 0.025 0
1.3 0.025 0
1.325 0.025 0
1.3 0.05 0
1.325 0.05 0
1.325 0.025 0
1.35 0.025 0
1.325 0.05 0
1.35 0.05 0
1.35 0 0
1.375 0 0
1.35 0.025 0
1.375 0.025 0
1.375 0 0
1.4 0 0
1.375 0.025 0
1.4 0.025 0
1.35 0.025 0
1.375 0.025 0
1.35 0.05 0
1.375 0.05 0
1.375 0.025 0
1.4 0.025 0
1.375 0.05 0
1.4 0.05 0
1.4 0 0
1.425 0 0
1.4 0.025 0
1.425 0.025 0
1.425 0 0
1.45 0 0
1.425 0.025 0
1.45 0.025 0
1.4 0.025 0
1.425 0.025 0
1.4 0.05 0
1.425 0.05 0
1.425 0.025 0
1.45 0.025 0
1.425 0.05 0
1.45 0.05 0
1.45 0 0
1.475 0 0
1.45 0.025 0
1.475 0.025 0
1.475 0 0
1.5 0 0
1.475 0.025 0
1.5 0.025 0
1.45 0.025 0
1.475 0.025 0
1.45 0.05 0
1.475 0.05 0
1.475 0.025 0
1.5 0.025 0
1.475 0.05 0
1.5 0.05 0
1.5 0 0
1.525 0 0
1.5 0.025 0
1.525 0.025 0
1.525 0 0
1.55 0 0
1.525 0.025 0
1.55 0.025 0
1.5 0.025 0
1.525 0.025 0
1.5 0.05 0
1.525 0.05 0
1.525 0.025 0
1.55 0.025 0
1.525 0.05 0
1.55 0.05 0
1.55 0 0
1.575 0 0
1.55 0.025 0
1.575 0.025 0
1.575 0 0
1.6 0 0
1.575 0.025 0
1.6 0.025 0
1.55 0.025 0
1.575 0.025 0
1.55 0.05 0
1.575 0.05 0
1.575 0.025 0
1.6 0.025 0
1.575 0.05 0
1.6 0.05 0
1.6 0 0
1.625 0 0
1.6 0.025 0
1.625 0.025 0
1.625 0 0
1.65 0 0
1.625 0.025 0
1.65 0.025 0
1.6 0.025 0
1.625 0.025 0
1.6 0.05 0
1.625 0.05 0
1.625 0.025 0
1.65 0.025 0
1.625 0.05 0
1.65 0.05 0
1.65 0 0
1.675 0 0
1.65 0.025 0
1.675 0.025 0
1.675 0 0
1.7 0 0
1.675 0.025 0
1.7 0.025 0
1.65 0.025 0
1.675 0.025 0
1.65 0.05 0
1.675 0.05 0
1.675 0.025 0
1.7 0.025 0
1.675 0.05 0
1.7 0.05 0
1.7 0 0
1.725 0 0
1.7 0.025 0
1.725 0.025 0
1.725 0 0
1.75 0 0
1.725 0.025 0
1.75 0.025 0
1.7 0.025 0
1.725 0.025 0
1.7 0.05 0
1.725 0.05 0
1.725 0.025 0
1.75 0.025 0
1.725 0.05 0
1.75 0.05 0
1.75 0 0
1.775 0 0
1.75 0.025 0
1.775 0.025 0
1.775 0 0
1.8 0 0
1.775 0.025 0
1.8 0.025 0
1.75 0.025 0
1.775 0.025 0
1.75 0.05 0
1.775 0.05 0
1.775 0.025 0
1.8 0.025 0
1.775 0.05 0
1.8 0.05 0
1.8 0 0
1.825 0 0
1.8 0.025 0
1.825 0.025 0
1.825 0 0
1.85 0 0
1.825 0.025 0
1.85 0.025 0
1.8 0.025 0
1.825 0.025 0
1.8 0.05 0
1.825 0.05 0
1.825 0.025 0
1.85 0.025 0
1.825 0.05 0
1.85 0.05 0
1.85 0 0
1.875 0 0
1.85 0.025 0
1.875 0.025 0
1.875 0 0
1.9 0 0
1.875 0.025 0
1.9 0.025 0
1.85 0.025 0
1.875 0.025 0
1.85 0.05 0
1.875 0.05 0
1.875 0.025 0
1.9 0.025 0
1.875 0.05 0
1.9 0.05 0
1.9 0 0
1.925 0 0
1.9 0.025 0
1.925 0.025 0
1.925 0 0
1.95 0 0
1.925 0.025 0
1.95 0.025 0
1.9 0.025 0
1.925 0.025 0
1.9 0.05 0
1.925 0.05 0
1.925 0.025 0
1.95 0.025 0
1.925 0.05 0
1.95 0.05 0
1.95 0 0
1.975 0 0
1.95 0.025 0
1.975 0.025 0
1.975 0 0
2 0 0
1.975 0.025 0
2 0.025 0
1.95 0.025 0
1.975 0.025 0
1.95 0.05 0
1.975 0.05 0
1.975 0.025 0
2 0.025 0
1.975 0.05 0
2 0.05 0
0 0.05 0
0.025 0.05 0
0 0.075 0
0.025 0.075 0
0.025 0.05 0
0.05 0.05 0
0.025 0.075 0
0.05 0.075 0
0 0.075 0
0.025 0.075 0
0 0.1 0
0.025 0.1 0
0.025 0.075 0
0.05 0.075 0
0.025 0.1 0
0.05 0.1 0
0.05 0.05 0
0.075 0.05 0
0.05 0.075 0
0.075 0.075 0
0.075 0.05 0
0.1 0.05 0
0.075 0.075 0
0.1 0.075 0
0.05 0.075 0
0.075 0.075 0
0.05 0.1 0
0.075 0.1 0
0.075 0.075 0
0.1 0.075 0
0.075 0.1 0
0.1 0.1 0
0.3 0.05 0
0.325 0.05 0
0.3 0.075 0
0.325 0.075 0
0.325 0.05 0
0.35 0.05 0
0.325 0.075 0
0.35 0.075 0
0.3 0.075 0
0.325 0.075 0
0.3 0.1 0
0.325 0.1 0
0.325 0.075 0
0.35 0.075 0
0.325 0.1 0
0.35 0.1 0
0.35 0.05 0
0.375 0.05 0
0.35 0.075 0
0.375 0.075 0
0.375 0.05 0
0.4 0.05 0
0.375 0.075 0
0.4 0.075 0
0.35 0.075 0
0.375 0.075 0
0.35 0.1 0
0.375 0.1 0
0.375 0.075 0
0.4 0.075 0
0.375 0.1 0
0.4 0.1 0
0.4 0.05 0
0.425 0.05 0
0.4 0.075 0
0.425 0.075 0
0.425 0.05 0
0.45 0.05 0
0.425 0.075 0
0.45 0.075 0
0.4 0.075 0
0.425 0.075 0
0.4 0.1 0
0.425 0.1 0
0.425 0.075 0
0.45 0.075 0
0.425 0.1 0
0.45 0.1 0
0.45 0.05 0
0.475 0.05 0
0.45 0.075 0
0.475 0.075 0
0.475 0.05 0
0.5 0.05 0
0.475 0.075 0
0.5 0.075 0
0.45 0.075 0
0.475 0.075 0
0.45 0.1 0
0.475 0.1 0
0.475 0.075 0
0.5 0.075 0
0.475 0.1 0
0.5 0.1 0
0.5 0.05 0
0.525 0.05 0
0.5 0.075 0
0.525 0.075 0
0.525 0.05 0
0.55 0.05 0
0.525 0.075 0
0.55 0.075 0
0.5 0.075 0
0.525 0.075 0
0.5 0.1 0
0.525 0.1 0
0.525 0.075 0
0.55 0.075 0
0.525 0.1 0
0.55 0.1 0
0.55 0.05 0
0.575 0.05 0
0.55 0.075 0
0.575 0.075 0
0.575 0.05 0
0.6 0.05 0
0.575 0.075 0
0.6 0.075 0
0.55 0.075 0
0.575 0.075 0
0.55 0.1 0
0.575 0.1 0
0.575 0.075 0
0.6 0.075 0
0.575 0.1 0
0.6 0.1 0
0.6 0.05 0
0.625 0.05 0
0.6 0.075 0
0.625 0.075 0
0.625 0.05 0
0.65 0.05 0
0.625 0.075 0
0.65 0.075 0
0.6 0.075 0
0.625 0.075 0
0.6 0.1 0
0.625 0.1 0
0.625 0.075 0
0.65 0.075 0
0.625 0.1 0
0.65 0.1 0
0.65 0.05 0
0.675 0.05 0
0.65 0.075 0
0.675 0.075 0
0.675 0.05 0
0.7 0.05 0
0.675 0.075 0
0.7 0.075 0
0.65 0.075 0
0.675 0.075 0
0.65 0.1 0
0.675 0.1 0
0.675 0.075 0
0.7 0.075 0
0.675 0.1 0
0.7 0.1 0
0.7 0.05 0
0.725 0.05 0
0.7 0.075 0
0.725 0.075 0
0.725 0.05 0
0.75 0.05 0
0.725 0.075 0
0.75 0.075 0
0.7 0.075 0
0.725 0.075 0
0.7 0.1 0
0.725 0.1 0
0.725 0.075 0
0.75 0.075 0
0.725 0.1 0
0.75 0.1 0
0.75 0.05 0
0.775 0.05 0
0.75 0.075 0
0.775 0.075 0
0.775 0.05 0
0.8 0.05 0
0.775 0.075 0
0.8 0.075 0
0.75 0.075 0
0.775 0.075 0
0.75 0.1 0
0.775 0.1 0
0.775 0.075 0
0.8 0.075 0
0.775 0.1 0
0.8 0.1 0
0.8 0.05 0
0.825 0.05 0
0.8 0.075 0
0.825 0.075 0
0.825 0.05 0
0.85 0.05 0
0.825 0.075 0
0.85 0.075 0
0.8 0.075 0
0.825 0.075 0
0.8 0.1 0
0.825 0.1 0
0.825 0.075 0
0.85 0.075 0
0.825 0.1 0
0.85 0.1 0
0.85 0.05 0
0.875 0.05 0
0.85 0.075 0
0.875 0.075 0
0.875 0.05 0
0.9 0.05 0
0.875 0.075 0
0.9 0.075 0
0.85 0.075 0
0.875 0.075 0
0.85 0.1 0
0.875 0.1 0
0.875 0.075 0
0.9 0.075 0
0.875 0.1 0
0.9 0.1 0
0.9 0.05 0
0.925 0.05 0
0.9 0.075 0
0.925 0.075 0
0.925 0.05 0
0.95 0.05 0
0.925 0.075 0
0.95 0.075 0
0.9 0.075 0
0.925 0.075 0
0.9 0.1 0
0.925 0.1 0
0.925 0.075 0
0.95 0.075 0
0.925 0.1 0
0.95 0.1 0
0.95 0.05 0
0.975 0.05 0
0.95 0.075 0
0.975 0.075 0
0.975 0.05 0
1 0.05 0
0.975 0.075 0
1 0.075 0
0.95 0.075 0
0.975 0.075 0
0.95 0.1 0
0.975 0.1 0
0.975 0.075 0
1 0.075 0
0.975 0.1 0
1 0.1 0
1 0.05 0
1.025 0.05 0
1 0.075 0
1.025 0.075 0
1.025 0.05 0
1.05 0.05 0
1.025 0.075 0
1.05 0.075 0
1 0.075 0
1.025 0.075 0
1 0.1 0
1.025 0.1 0
1.025 0.075 0
1.05 0.075 0
1.025 0.1 0
1.05 0.1 0
1.05 0.05 0
1.075 0.05 0
1.05 0.075 0
1.075 0.075 0
1.075 0.05 0
1.1 0.05 0
1.075 0.075 0
1.1 0.075 0
1.05 0.075 0
1.075 0.075 0
1.05 0.1 0
1.075 0.1 0
1.075 0.075 0
1.1 0.075 0
1.075 0.1 0
1.1 0.1 0
1.1 0.05 0
1.125 0.05 0
1.1 0.075 0
1.125 0.075 0
1.125 0.05 0
1.15 0.05 0
1.125 0.075 0
1.15 0.075 0
1.1 0.075 0
1.125 0.075 0
1.1 0.1 0
1.125 0.1 0
1.125 0.075 0
1.15 0.075 0
1.125 0.1 0
1.15 0.1 0
1.15 0.05 0
1.175 0.05 0
1.15 0.075 0
1.175 0.075 0
1.175 0.05 0
1.2 0.05 0
1.175 0.075 0
1.2 0.075 0
1.15 0.075 0
1.175 0.075 0
1.15 0.1 0
1.175 0.1 0
1.175 0.075 0
1.2 0.075 0
1.175 0.1 0
1.2 0.1 0
1.2 0.05 0
1.225 0.05 0
1.2 0.075 0
1.225 0.075 0
1.225 0.05 0
1.25 0.05 0
1.225 0.075 0
1.25 0.075 0
1.2 0.075 0
1.225 0.075 0
1.2 0.1 0
1.225 0.1 0
1.225 0.075 0
[...]
POINT_DATA 11912
SCALARS x_displacement double 1
LOOKUP_TABLE default
0 -1.55906 0 -0.901658 -1.55906 -2.70986 -0.901658 -1.83666 -2.70986 -3.6415 -1.83666 -2.64359 -3.6415 -4.42886 -2.64359 -3.35124 -4.42886 -5.13031 -3.35124 -3.98219 -5.13031 -5.80492 -3.98219 -4.55789 -5.80492 -6.49485 -4.55789 -5.12265 -6.49485 -7.20862 -5.12265 -5.70315 -7.20862 -7.91833 -5.70315 -6.31135 -7.91833 -8.60074 -6.31135 -6.93956 -8.60074 -9.25041 -6.93956 -7.57921 -9.25041 -9.87214 -7.57921 -8.22554 -9.87214 -10.4723 -8.22554 -8.87421 -10.4723 -11.0562 -8.87421 -9.52099 -11.0562 -11.6301 -9.52099 -10.1614 -11.6301 -12.2022 -10.1614 -10.7901 -12.2022 -12.781 -10.7901 -11.4022 -12.781 -13.3727 -11.4022 -11.9946 -13.3727 -13.9794 -11.9946 -12.5668 -13.9794 -14.6 -12.5668 -13.1201 -14.6 -15.2356 -13.1201 -13.6547 -15.2356 -15.8924 -13.6547 -14.1706 -15.8924 -16.5668 -14.1706 -14.6672 -16.5668 -17.2264 -14.6672 -15.1334 -17.2264 -17.8019 -15.1334 -15.5564 -17.8019 -18.212 -15.5564 -15.9238 -1.83666 -2.64359 -1.26073 -1.87639 -2.64359 -3.35124 -1.87639 -2.44678 -3.35124 -3.98219 -2.44678 -2.95995 -3.98219 -4.55789 -2.95995 -3.39196 -2.44678 -2.95995 -1.68446 -2.09122 -2.95995 -3.39196 -2.09122 -2.44498 -1.05962 -1.16531 -0.00882929 -0.00893804 -1.16531 -1.21238 -0.00893804 -0.00927717 -1.30316 -1.2989 -0.000150851 0.000909418 -2.14682 -2.39144 0.00295328 0.00287927 -2.39144 -2.43921 0.00287927 0.0028396 -0.134773 -0.0880914 0.421105 0.550822 -0.00882929 -0.00893804 1.04121 1.14702 -0.00893804 -0.00927717 1.14702 1.19383 0.00295328 0.00287927 2.15254 2.39709 0.00287927 0.0028396 2.39709 2.44482 1.66943 2.07617 2.43991 2.95268 2.07617 2.42968 2.95268 3.38423 1.25488 1.86994 1.83829 2.64543 1.86994 2.43991 2.64543 3.35287 2.43991 2.95268 3.35287 3.98318 2.95268 3.38423 3.98318 4.55804 0 0.902526 0 1.56613 0.902526 1.83829 1.56613 2.72042 1.83829 2.64543 2.72042 3.65307 2.64543 3.35287 3.65307 4.44002 3.35287 3.98318 4.44002 5.14028 3.98318 4.55804 5.14028 5.81323 4.55804 5.12189 5.81323 6.50108 5.12189 5.70161 6.50108 7.21219 5.70161 6.30915 7.21219 7.91861 6.30915 6.93685 7.91861 8.59742 6.93685 7.57618 8.59742 9.2438 7.57618 8.2222 9.2438 9.86295 8.2222 8.87047 9.86295 10.4614 8.87047 9.51677 10.4614 11.0445 9.51677 10.1567 11.0445 11.6183 10.1567 10.785 11.6183 12.1908 10.785 11.3969 12.1908 12.7703 11.3969 11.9895 12.7703 13.3629 11.9895 12.5622 13.3629 13.9705 12.5622 13.1163 13.9705 14.5921 13.1163 13.6518 14.5921 15.2291 13.6518 14.1686 15.2291 15.8877 14.1686 14.666 15.8877 16.5639 14.666 15.1325 16.5639 17.2249 15.1325 15.5555 17.2249 17.801 15.5555 15.9228 17.801 18.211 -18.212 -18.3635 -17.0679 -17.1947 -18.3635 -18.4697 -17.1947 -17.3307 -17.0679 -17.1947 -15.9238 -16.0925 -17.1947 -17.3307 -16.0925 -16.2392 -18.4697 -18.5746 -17.3307 -17.4604 -18.5746 -18.627 -17.4604 -17.5712 -17.3307 -17.4604 -16.2392 -16.3624 -17.4604 -17.5712 -16.3624 -16.4679 -18.627 -18.6084 -17.5712 -17.6689 -18.6084 -19.0198 -17.6689 -17.8142 -17.5712 -17.6689 -16.4679 -16.5801 -17.6689 -17.8142 -16.5801 -16.6786 -19.0198 -19.2853 -17.8142 -17.929 -19.2853 -19.4599 -17.929 -18.0405 -17.8142 -17.929 -16.6786 -16.7209 -17.929 -18.0405 -16.7209 -16.8753 -19.4599 -19.6379 -18.0405 -18.1575 -19.6379 -19.8226 -18.1575 -18.4559 -18.0405 -18.1575 -16.8753 -16.958 -18.1575 -18.4559 -16.958 -17.1859 -19.8226 -20.0057 -18.4559 -18.662 -20.0057 -20.166 -18.662 -18.8406 -18.4559 -18.662 -17.1859 -17.4015 -18.662 -18.8406 -17.4015 -17.5829 -20.166 -20.3044 -18.8406 -18.9881 -20.3044 -20.4182 -18.9881 -19.1104 -18.8406 -18.9881 -17.5829 -17.7194 -18.9881 -19.1104 -17.7194 -17.8444 -20.4182 -20.5107 -19.1104 -19.2155 -20.5107 -20.5852 -19.2155 -19.3044 -19.1104 -19.2155 -17.8444 -17.9594 -19.2155 -19.3044 -17.9594 -18.0603 -20.5852 -20.6426 -19.3044 -19.3771 -20.6426 -20.6836 -19.3771 -19.4346 -19.3044 -19.3771 -18.0603 -18.1457 -19.3771 -19.4346 -18.1457 -18.2165 -20.6836 -20.7102 -19.4346 -19.4787 -20.7102 -20.7245 -19.4787 -19.5111 -19.4346 -19.4787 -18.2165 -18.2745 -19.4787 -19.5111 -18.2745 -18.3212 -20.7245 -20.7288 -19.5111 -19.5332 -20.7288 -20.7252 -19.5332 -19.5468 -19.5111 -19.5332 -18.3212 -18.3572 -19.5332 -19.5468 -18.3572 -18.3837 -20.7252 -20.7163 -19.5468 -19.5536 -20.7163 -20.7046 -19.5536 -19.5555 -19.5468 -19.5536 -18.3837 -18.4018 -19.5536 -19.5555 -18.4018 -18.4129 -20.7046 -20.693 -19.5555 -19.5546 -20.693 -20.6843 -19.5546 -19.5528 -19.5555 -19.5546 -18.4129 -18.4187 -19.5546 -19.5528 -18.4187 -18.4211 -20.6843 -20.6799 -19.5528 -19.5515 -20.6799 -20.679 -19.5515 -19.5514 -19.5528 -19.5515 -18.4211 -18.4222 -19.5515 -19.5514 -18.4222 -18.4236 0 -0.450829 0 -0.369605 -0.450829 -0.901658 -0.369605 -0.76458 0 -0.369605 0 -0.296836 -0.369605 -0.76458 -0.296836 -0.645394 -0.901658 -1.36916 -0.76458 -1.1522 -1.36916 -1.83666 -1.1522 -1.5487 -0.76458 -1.1522 -0.645394 -0.965553 -1.1522 -1.5487 -0.965553 -1.26073 -4.55789 -4.84027 -3.97492 -4.19767 -4.84027 -5.12265 -4.19767 -4.42503 -3.97492 -4.19767 -3.39196 -3.58315 -4.19767 -4.42503 -3.58315 -3.74661 -5.12265 -5.4129 -4.42503 -4.66793 -5.4129 -5.70315 -4.66793 -4.92927 -4.42503 -4.66793 -3.74661 -3.91456 -4.66793 -4.92927 -3.91456 -4.11442 -5.70315 -6.00725 -4.92927 -5.20682 -6.00725 -6.31135 -5.20682 -5.49639 -4.92927 -5.20682 -4.11442 -4.37459 -5.20682 -5.49639 -4.37459 -4.65311 -6.31135 -6.62546 -5.49639 -5.79604 -6.62546 -6.93956 -5.79604 -6.1058 -5.49639 -5.79604 -4.65311 -4.94565 -5.79604 -6.1058 -4.94565 -5.25298 -6.93956 -7.25938 -6.1058 -6.42115 -7.25938 -7.57921 -6.42115 -6.74409 -6.1058 -6.42115 -5.25298 -5.57222 -6.42115 -6.74409 -5.57222 -5.90017 -7.57921 -7.90237 -6.74409 -7.07181 -7.90237 -8.22554 -7.07181 -7.4047 -6.74409 -7.07181 -5.90017 -6.23792 -7.07181 -7.4047 -6.23792 -6.58212 -8.22554 -8.54987 -7.4047 -7.74027 -8.54987 -8.87421 -7.74027 -8.07872 -7.4047 -7.74027 -6.58212 -6.93129 -7.74027 -8.07872 -6.93129 -7.28528 -8.87421 -9.1976 -8.07872 -8.41834 -9.1976 -9.52099 -8.41834 -8.75865 -8.07872 -8.41834 -7.28528 -7.64327 -8.41834 -8.75865 -7.64327 -8.00404 -9.52099 -9.84119 -8.75865 -9.0979 -9.84119 -10.1614 -9.0979 -9.43468 -8.75865 -9.0979 -8.00404 -8.36431 -9.0979 -9.43468 -8.36431 -8.72291 -10.1614 -10.4758 -9.43468 -9.76742 -10.4758 -10.7901 -9.76742 -10.0941 -9.43468 -9.76742 -8.72291 -9.07464 -9.76742 -10.0941 -9.07464 -9.41905 -10.7901 -11.0962 -10.0941 -10.4137 -11.0962 -11.4022 -10.4137 -10.7243 -10.0941 -10.4137 -9.41905 -9.75064 -10.4137 -10.7243 -9.75064 -10.0698 -11.4022 -11.6984 -10.7243 -11.0257 -11.6984 -11.9946 -11.0257 -11.3168 -10.7243 -11.0257 -10.0698 -10.3726 -11.0257 -11.3168 -10.3726 -10.6607 -11.9946 -12.2807 -11.3168 -11.5983 -12.2807 -12.5668 -11.5983 -11.8702 -11.3168 -11.5983 -10.6607 -10.9321 -11.5983 -11.8702 -10.9321 -11.1906 -12.5668 -12.8435 -11.8702 -12.1334 -12.8435 -13.1201 -12.1334 -12.3881 -11.8702 -12.1334 -11.1906 -11.4355 -12.1334 -12.3881 -11.4355 -11.6704 -13.1201 -13.3874 -12.3881 -12.6351 -13.3874 -13.6547 -12.6351 -12.8732 -12.3881 -12.6351 -11.6704 -11.8955 -12.6351 -12.8732 -11.8955 -12.1099 -13.6547 -13.9126 -12.8732 -13.1033 -13.9126 -14.1706 -13.1033 -13.3247 -12.8732 -13.1033 -12.1099 -12.3138 -13.1033 -13.3247 -12.3138 -12.507 -14.1706 -14.4189 -13.3247 -13.5389 -14.4189 -14.6672 -13.5389 -13.7439 -13.3247 -13.5389 -12.507 -12.6834 -13.5389 -13.7439 -12.6834 -12.8494 -14.6672 -14.9003 -13.7439 -13.9434 -14.9003 -15.1334 -13.9434 -14.1331 -13.7439 -13.9434 -12.8494 -13.0077 -13.9434 -14.1331 -13.0077 -13.1604 -15.1334 -15.3449 -14.1331 -14.3189 -15.3449 -15.5564 -14.3189 -14.4982 -14.1331 -14.3189 -13.1604 -13.3079 -14.3189 -14.4982 -13.3079 -13.4546 -15.5564 -15.7401 -14.4982 -14.6727 -15.7401 -15.9238 -14.6727 -14.8371 -14.4982 -14.6727 -13.4546 -13.6009 -14.6727 -14.8371 -13.6009 -13.7434 -15.9238 -16.0925 -14.8371 -14.9855 -16.0925 -16.2392 -14.9855 -15.1202 -14.8371 -14.9855 -13.7434 -13.8763 -14.9855 -15.1202 -13.8763 -14.0009 -16.2392 -16.3624 -15.1202 -15.2433 -16.3624 -16.4679 -15.2433 -15.3582 -15.1202 -15.2433 -14.0009 -14.1217 -15.2433 -15.3582 -14.1217 -14.2402 -16.4679 -16.5801 -15.3582 -15.4637 -16.5801 -16.6786 -15.4637 -15.5717 -15.3582 -15.4637 -14.2402 -14.3584 -15.4637 -15.5717 -14.3584 -14.4957 -16.6786 -16.7209 -15.5717 -15.747 -16.7209 -16.8753 -15.747 -15.9263 -15.5717 -15.747 -14.4957 -14.6482 -15.747 -15.9263 -14.6482 -14.7922 -16.8753 -16.958 -15.9263 -15.9877 -16.958 -17.1859 -15.9877 -16.1407 -15.9263 -15.9877 -14.7922 -14.9144 -15.9877 -16.1407 -14.9144 -14.9877 -17.1859 -17.4015 -16.1407 -16.2465 -17.4015 -17.5829 -16.2465 -16.3589 -16.1407 -16.2465 -14.9877 -14.9593 -16.2465 -16.3589 -14.9593 -15.1434 -17.5829 -17.7194 -16.3589 -16.485 -17.7194 -17.8444 -16.485 -16.6161 -16.3589 -16.485 -15.1434 -15.3032 -16.485 -16.6161 -15.3032 -15.4177 -17.8444 -17.9594 -16.6161 -16.7381 -17.9594 -18.0603 -16.7381 -16.8501 -16.6161 -16.7381 -15.4177 -15.5471 -16.7381 -16.8501 -15.5471 -15.6687 -18.0603 -18.1457 -16.8501 -16.9454 -18.1457 -18.2165 -16.9454 -17.0267 -16.8501 -16.9454 -15.6687 -15.7699 -16.9454 -17.0267 -15.7699 -15.8648 -18.2165 -18.2745 -17.0267 -17.0971 -18.2745 -18.3212 -17.0971 -17.1558 -17.0267 -17.0971 -15.8648 -15.9475 -17.0971 -17.1558 -15.9475 -16.0164 -18.3212 -18.3572 -17.1558 -17.2029 -18.3572 -18.3837 -17.2029 -17.2392 -17.1558 -17.2029 -16.0164 -16.0722 -17.2029 -17.2392 -16.0722 -16.1163 -18.3837 -18.4018 -17.2392 -17.2654 -18.4018 -18.4129 -17.2654 -17.2827 -17.2392 -17.2654 -16.1163 -16.1488 -17.2654 -17.2827 -16.1488 -16.1702 -18.4129 -18.4187 -17.2827 -17.2926 -18.4187 -18.4211 -17.2926 -17.2972 -17.2827 -17.2926 -16.1702 -16.1821 -17.2926 -17.2972 -16.1821 -16.1873 -18.4211 -18.4222 -17.2972 -17.2993 -18.4222 -18.4236 -17.2993 -17.3016 -17.2972 -17.2993 -16.1873 -16.1891 -17.2993 -17.3016 -16.1891 -16.1916 0 -0.296836 0 -0.230351 -0.296836 -0.645394 -0.230351 -0.532206 0 -0.230351 0 -0.145929 -0.230351 -0.532206 -0.145929 -0.338553 -0.645394 -0.965553 -0.532206 -0.768939 -0.965553 -1.26073 -0.768939 -1.0021 -0.532206 -0.768939 -0.338553 -0.517615 -0.768939 -1.0021 -0.517615 -0.727928 -1.26073 -1.56856 -1.0021 -1.26279 -1.56856 -1.87639 -1.26279 -1.53913 -1.0021 -1.26279 -0.727928 -0.97176 -1.26279 -1.53913 -0.97176 -1.23618 -1.87639 -2.16158 -1.53913 -1.80591 -2.16158 -2.44678 -1.80591 -2.06562 -1.53913 -1.80591 -1.23618 -1.47594 -1.80591 -2.06562 -1.47594 -1.68446 -3.39196 -3.58315 -2.91847 -3.05935 -3.58315 -3.74661 -3.05935 -3.19159 -2.91847 -3.05935 -2.44498 -2.61008 -3.05935 -3.19159 -2.61008 -2.75535 -3.74661 -3.91456 -3.19159 -3.30306 -3.91456 -4.11442 -3.30306 -3.41151 -3.19159 -3.30306 -2.75535 -2.88785 -3.30306 -3.41151 -2.88785 -3.0256 -4.11442 -4.37459 -3.41151 -3.57284 -4.37459 -4.65311 -3.57284 -3.80478 -3.41151 -3.57284 -3.0256 -3.18129 -3.57284 -3.80478 -3.18129 -3.32488 -4.65311 -4.94565 -3.80478 -4.05219 -4.94565 -5.25298 -4.05219 -4.34624 -3.80478 -4.05219 -3.32488 -3.45922 -4.05219 -4.34624 -3.45922 -3.58342 -5.25298 -5.57222 -4.34624 -4.67977 -5.57222 -5.90017 -4.67977 -5.04048 -4.34624 -4.67977 -3.58342 -3.73173 -4.67977 -5.04048 -3.73173 -4.00591 -5.90017 -6.23792 -5.04048 -5.39785 -6.23792 -6.58212 -5.39785 -5.76093 -5.04048 -5.39785 -4.00591 -4.29589 -5.39785 -5.76093 -4.29589 -4.88014 -6.58212 -6.93129 -5.76093 -6.12703 -6.93129 -7.28528 -6.12703 -6.49724 -5.76093 -6.12703 -4.88014 -5.45821 -6.12703 -6.49724 -5.45821 -5.92422 -7.28528 -7.64327 -6.49724 -6.87984 -7.64327 -8.00404 -6.87984 -7.26032 -6.49724 -6.87984 -5.92422 -6.32885 -6.87984 -7.26032 -6.32885 -6.73843 -8.00404 -8.36431 -7.26032 -7.65063 -8.36431 -8.72291 -7.65063 -8.02758 -7.26032 -7.65063 -6.73843 -7.10438 -7.65063 -8.02758 -7.10438 -7.50091 -8.72291 -9.07464 -8.02758 -8.40711 -9.07464 -9.41905 -8.40711 -8.76225 -8.02758 -8.40711 -7.50091 -7.83908 -8.40711 -8.76225 -7.83908 -8.20762 -9.41905 -9.75064 -8.76225 -9.11141 -9.75064 -10.0698 -9.11141 -9.42981 -8.76225 -9.11141 -8.20762 -8.51535 -9.11141 -9.42981 -8.51535 -8.84041 -10.0698 -10.3726 -9.42981 -9.73625 -10.3726 -10.6607 -9.73625 -10.0127 -9.42981 -9.73625 -8.84041 -9.10975 -9.73625 -10.0127 -9.10975 -9.38656 -10.6607 -10.9321 -10.0127 -10.2757 -10.9321 -11.1906 -10.2757 -10.5159 -10.0127 -10.2757 -9.38656 -9.61762 -10.2757 -10.5159 -9.61762 -9.85251 -11.1906 -11.4355 -10.5159 -10.7456 -11.4355 -11.6704 -10.7456 -10.9595 -10.5159 -10.7456 -9.85251 -10.0565 -10.7456 -10.9595 -10.0565 -10.2605 -11.6704 -11.8955 -10.9595 -11.1677 -11.8955 -12.1099 -11.1677 -11.3633 -10.9595 -11.1677 -10.2605 -10.4585 -11.1677 -11.3633 -10.4585 -10.6694 -12.1099 -12.3138 -11.3633 -11.5527 -12.3138 -12.507 -11.5527 -11.7215 -11.3633 -11.5527 -10.6694 -10.8528 -11.5527 -11.7215 -10.8528 -10.9882 -12.507 -12.6834 -11.7215 -11.864 -12.6834 -12.8494 -11.864 -11.9889 -11.7215 -11.864 -10.9882 -11.0874 -11.864 -11.9889 -11.0874 -11.1678 -12.8494 -13.0077 -11.9889 -12.1041 -13.0077 -13.1604 -12.1041 -12.2115 -11.9889 -12.1041 -11.1678 -11.2321 -12.1041 -12.2115 -11.2321 -11.2822 -13.1604 -13.3079 -12.2115 -12.3102 -13.3079 -13.4546 -12.3102 -12.4049 -12.2115 -12.3102 -11.2822 -11.3202 -12.3102 -12.4049 -11.3202 -11.3526 -13.4546 -13.6009 -12.4049 -12.5061 -13.6009 -13.7434 -12.5061 -12.6168 -12.4049 -12.5061 -11.3526 -11.3881 -12.5061 -12.6168 -11.3881 -11.4476 -13.7434 -13.8763 -12.6168 -12.7381 -13.8763 -14.0009 -12.7381 -12.8622 -12.6168 -12.7381 -11.4476 -11.5592 -12.7381 -12.8622 -11.5592 -11.6976 -14.0009 -14.1217 -12.8622 -12.9867 -14.1217 -14.2402 -12.9867 -13.1139 -12.8622 -12.9867 -11.6976 -11.8358 -12.9867 -13.1139 -11.8358 -11.9709 -14.2402 -14.3584 -13.1139 -13.2435 -14.3584 -14.4957 -13.2435 -13.3783 -13.1139 -13.2435 -11.9709 -12.1049 -13.2435 -13.3783 -12.1049 -12.2378 -14.4957 -14.6482 -13.3783 -13.5136 -14.6482 -14.7922 -13.5136 -13.6396 -13.3783 -13.5136 -12.2378 -12.3699 -13.5136 -13.6396 -12.3699 -12.5034 -14.7922 -14.9144 -13.6396 -13.761 -14.9144 -14.9877 -13.761 -13.8778 -13.6396 -13.761 -12.5034 -12.6324 -13.761 -13.8778 -12.6324 -12.7512 -14.9877 -14.9593 -13.8778 -13.9807 -14.9593 -15.1434 -13.9807 -14.1048 -13.8778 -13.9807 -12.7512 -12.8776 -13.9807 -14.1048 -12.8776 -12.993 -15.1434 -15.3032 -14.1048 -14.1648 -15.3032 -15.4177 -14.1648 -14.2852 -14.1048 -14.1648 -12.993 -13.0751 -14.1648 -14.2852 -13.0751 -13.1608 -15.4177 -15.5471 -14.2852 -14.3431 -15.5471 -15.6687 -14.3431 -14.4936 -14.2852 -14.3431 -13.1608 -13.1823 -14.3431 -14.4936 -13.1823 -13.3674 -15.6687 -15.7699 -14.4936 -14.6217 -15.7699 -15.8648 -14.6217 -14.7357 -14.4936 -14.6217 -13.3674 -13.5239 -14.6217 -14.7357 -13.5239 -13.6607 -15.8648 -15.9475 -14.7357 -14.83 -15.9475 -16.0164 -14.83 -14.9038 -14.7357 -14.83 -13.6607 -13.7412 -14.83 -14.9038 -13.7412 -13.8158 -16.0164 -16.0722 -14.9038 -14.9664 -16.0722 -16.1163 -14.9664 -15.0177 -14.9038 -14.9664 -13.8158 -13.8868 -14.9664 -15.0177 -13.8868 -13.946 -16.1163 -16.1488 -15.0177 -15.0555 -16.1488 -16.1702 -15.0555 -15.0796 -15.0177 -15.0555 -13.946 -13.9888 -15.0555 -15.0796 -13.9888 -14.0146 -16.1702 -16.1821 -15.0796 -15.0921 -16.1821 -16.1873 -15.0921 -15.0964 -15.0796 -15.0921 -14.0146 -14.0263 -15.0921 -15.0964 -14.0263 -14.0288 -16.1873 -16.1891 -15.0964 -15.097 -16.1891 -16.1916 -15.097 -15.0986 -15.0964 -15.097 -14.0288 -14.0272 -15.097 -15.0986 -14.0272 -14.027 0 -0.145929 0 -0.0739521 -0.145929 -0.338553 -0.0739521 -0.110512 0 -0.0739521 0 -0.0836124 -0.0739521 -0.110512 -0.0836124 -0.189998 -0.338553 -0.517615 -0.110512 -0.260821 -0.517615 -0.727928 -0.260821 -0.450635 -0.110512 -0.260821 -0.189998 -0.404398 -0.260821 -0.450635 -0.404398 -0.320399 -0.727928 -0.97176 -0.450635 -0.706511 -0.97176 -1.23618 -0.706511 -0.962266 -0.450635 -0.706511 -0.320399 -0.452127 -0.706511 -0.962266 -0.452127 -0.653809 -1.23618 -1.47594 -0.962266 -1.15769 -1.47594 -1.68446 -1.15769 -1.33147 -0.962266 -1.15769 -0.653809 -0.811855 -1.15769 -1.33147 -0.811855 -0.982081 -1.68446 -1.88784 -1.33147 -1.51451 -1.88784 -2.09122 -1.51451 -1.69791 -1.33147 -1.51451 -0.982081 -1.15171 -1.51451 -1.69791 -1.15171 -1.33028 -2.09122 -2.2681 -1.69791 -1.87445 -2.2681 -2.44498 -1.87445 -2.04136 -1.69791 -1.87445 -1.33028 -1.50153 -1.87445 -2.04136 -1.50153 -1.66168 -2.44498 -2.61008 -2.04136 -2.20195 -2.61008 -2.75535 -2.20195 -2.35848 -2.04136 -2.20195 -1.66168 -1.8209 -2.20195 -2.35848 -1.8209 -1.98169 -2.75535 -2.88785 -2.35848 -2.51207 -2.88785 -3.0256 -2.51207 -2.66728 -2.35848 -2.51207 -1.98169 -2.14195 -2.51207 -2.66728 -2.14195 -2.2996 -3.0256 -3.18129 -2.66728 -2.81766 -3.18129 -3.32488 -2.81766 -2.95872 -2.66728 -2.81766 -2.2996 -2.45592 -2.81766 -2.95872 -2.45592 -2.61506 -3.32488 -3.45922 -2.95872 -3.09771 -3.45922 -3.58342 -3.09771 -3.23675 -2.95872 -3.09771 -2.61506 -2.76964 -3.09771 -3.23675 -2.76964 -2.92581 -3.58342 -3.73173 -3.23675 -3.41184 -3.73173 -4.00591 -3.41184 -3.61643 -3.23675 -3.41184 -2.92581 -3.10389 -3.41184 -3.61643 -3.10389 -3.27801 -4.00591 -4.29589 -3.61643 -3.70358 -4.29589 -4.88014 -3.70358 -3.83237 -3.61643 -3.70358 -3.27801 -3.42529 -3.70358 -3.83237 -3.42529 -3.51198 -4.88014 -5.45821 -3.83237 -4.08049 -5.45821 -5.92422 -4.08049 -4.59682 -3.83237 -4.08049 -3.51198 -3.4094 -4.08049 -4.59682 -3.4094 -3.56777 -5.92422 -6.32885 -4.59682 -5.30177 -6.32885 -6.73843 -5.30177 -5.86881 -4.59682 -5.30177 -3.56777 -3.9409 -5.30177 -5.86881 -3.9409 -4.60018 -6.73843 -7.10438 -5.86881 -6.39202 -7.10438 -7.50091 -6.39202 -6.89749 -5.86881 -6.39202 -4.60018 -5.10574 -6.39202 -6.89749 -5.10574 -5.60622 -7.50091 -7.83908 -6.89749 -7.34477 -7.83908 -8.20762 -7.34477 -7.67066 -6.89749 -7.34477 -5.60622 -6.22547 -7.34477 -7.67066 -6.22547 -6.67869 -8.20762 -8.51535 -7.67066 -8.00736 -8.51535 -8.84041 -8.00736 -8.27183 -7.67066 -8.00736 -6.67869 -6.98828 -8.00736 -8.27183 -6.98828 -7.31604 -8.84041 -9.10975 -8.27183 -8.55272 -9.10975 -9.38656 -8.55272 -8.78103 -8.27183 -8.55272 -7.31604 -7.64792 -8.55272 -8.78103 -7.64792 -7.98188 -9.38656 -9.61762 -8.78103 -9.01955 -9.61762 -9.85251 -9.01955 -9.22095 -8.78103 -9.01955 -7.98188 -8.28507 -9.01955 -9.22095 -8.28507 -8.56102 -9.85251 -10.0565 -9.22095 -9.43633 -10.0565 -10.2605 -9.43633 -9.6497 -9.22095 -9.43633 -8.56102 -8.84489 -9.43633 -9.6497 -8.84489 -9.00433 -10.2605 -10.4585 -9.6497 -9.90841 -10.4585 -10.6694 -9.90841 -10.0391 -9.6497 -9.90841 -9.00433 -9.14199 -9.90841 -10.0391 -9.14199 -9.25636 -10.6694 -10.8528 -10.0391 -10.147 -10.8528 -10.9882 -10.147 -10.2303 -10.0391 -10.147 -9.25636 -9.34245 -10.147 -10.2303 -9.34245 -9.40243 -10.9882 -11.0874 -10.2303 -10.2925 -11.0874 -11.1678 -10.2925 -10.3316 -10.2303 -10.2925 -9.40243 -9.43553 -10.2925 -10.3316 -9.43553 -9.44244 -11.1678 -11.2321 -10.3316 -10.3494 -11.2321 -11.2822 -10.3494 -10.3495 -10.3316 -10.3494 -9.44244 -9.4297 -10.3494 -10.3495 -9.4297 -9.40123 -11.2822 -11.3202 -10.3495 -10.337 -11.3202 -11.3526 -10.337 -10.3145 -10.3495 -10.337 -9.40123 -9.35841 -10.337 -10.3145 -9.35841 -9.29991 -11.3526 -11.3881 -10.3145 -10.2826 -11.3881 -11.4476 -10.2826 -10.2606 -10.3145 -10.2826 -9.29991 -9.22225 -10.2826 -10.2606 -9.22225 -9.12095 -11.4476 -11.5592 -10.2606 -10.3449 -11.5592 -11.6976 -10.3449 -10.5171 -10.2606 -10.3449 -9.12095 -9.09662 -10.3449 -10.5171 -9.09662 -9.30341 -11.6976 -11.8358 -10.5171 -10.6669 -11.8358 -11.9709 -10.6669 -10.8156 -10.5171 -10.6669 -9.30341 -9.50184 -10.6669 -10.8156 -9.50184 -9.67358 -11.9709 -12.1049 -10.8156 -10.9606 -12.1049 -12.2378 -10.9606 -11.1008 -10.8156 -10.9606 -9.67358 -9.81593 -10.9606 -11.1008 -9.81593 -9.9614 -12.2378 -12.3699 -11.1008 -11.2385 -12.3699 -12.5034 -11.2385 -11.3742 -11.1008 -11.2385 -9.9614 -10.1096 -11.2385 -11.3742 -10.1096 -10.2519 -12.5034 -12.6324 -11.3742 -11.5082 -12.6324 -12.7512 -11.5082 -11.6397 -11.3742 -11.5082 -10.2519 -10.393 -11.5082 -11.6397 -10.393 -10.5328 -12.7512 -12.8776 -11.6397 -11.7625 -12.8776 -12.993 -11.7625 -11.8819 -11.6397 -11.7625 -10.5328 -10.67 -11.7625 -11.8819 -10.67 -10.8131 -12.993 -13.0751 -11.8819 -12.0283 -13.0751 -13.1608 -12.0283 -12.1631 -11.8819 -12.0283 -10.8131 -10.9554 -12.0283 -12.1631 -10.9554 -11.095 -13.1608 -13.1823 -12.1631 -12.2556 -13.1823 -13.3674 -12.2556 -12.39 -12.1631 -12.2556