# vtk DataFile Version 3.0
#This file was generated by the deal.II library on 2015/9/3 at 12: 1: 4
ASCII
DATASET UNSTRUCTURED_GRID

POINTS 11636 double
0 0 0
0.05 0 0
0 0.05 0
0.05 0.05 0
0.05 0 0
0.1 0 0
0.05 0.05 0
0.1 0.05 0
0.1 0 0
0.15 0 0
0.1 0.05 0
0.15 0.05 0
0.15 0 0
0.2 0 0
0.15 0.05 0
0.2 0.05 0
0.2 0 0
0.25 0 0
0.2 0.05 0
0.25 0.05 0
0.25 0 0
0.3 0 0
0.25 0.05 0
0.3 0.05 0
0.3 0 0
0.35 0 0
0.3 0.05 0
0.35 0.05 0
0.35 0 0
0.4 0 0
0.35 0.05 0
0.4 0.05 0
0.4 0 0
0.45 0 0
0.4 0.05 0
0.45 0.05 0
0.45 0 0
0.5 0 0
0.45 0.05 0
0.5 0.05 0
0.5 0 0
0.55 0 0
0.5 0.05 0
0.55 0.05 0
0.55 0 0
0.6 0 0
0.55 0.05 0
0.6 0.05 0
0.6 0 0
0.65 0 0
0.6 0.05 0
0.65 0.05 0
0.65 0 0
0.7 0 0
0.65 0.05 0
0.7 0.05 0
0.7 0 0
0.75 0 0
0.7 0.05 0
0.75 0.05 0
0.75 0 0
0.8 0 0
0.75 0.05 0
0.8 0.05 0
0.8 0 0
0.85 0 0
0.8 0.05 0
0.85 0.05 0
0.85 0 0
0.9 0 0
0.85 0.05 0
0.9 0.05 0
0.9 0 0
0.95 0 0
0.9 0.05 0
0.95 0.05 0
0.95 0 0
1 0 0
0.95 0.05 0
1 0.05 0
1 0 0
1.05 0 0
1 0.05 0
1.05 0.05 0
1.05 0 0
1.1 0 0
1.05 0.05 0
1.1 0.05 0
1.1 0 0
1.15 0 0
1.1 0.05 0
1.15 0.05 0
1.15 0 0
1.2 0 0
1.15 0.05 0
1.2 0.05 0
1.2 0 0
1.25 0 0
1.2 0.05 0
1.25 0.05 0
1.25 0 0
1.3 0 0
1.25 0.05 0
1.3 0.05 0
0.1 0.05 0
0.15 0.05 0
0.1 0.1 0
0.15 0.1 0
0.15 0.05 0
0.2 0.05 0
0.15 0.1 0
0.2 0.1 0
0.2 0.05 0
0.25 0.05 0
0.2 0.1 0
0.25 0.1 0
0.25 0.05 0
0.3 0.05 0
0.25 0.1 0
0.3 0.1 0
0.2 0.1 0
0.25 0.1 0
0.2 0.15 0
0.25 0.15 0
0.25 0.1 0
0.3 0.1 0
0.25 0.15 0
0.3 0.15 0
0.65 0.25 0
0.7 0.25 0
0.65 0.3 0
0.7 0.3 0
0.7 0.25 0
0.75 0.25 0
0.7 0.3 0
0.75 0.3 0
0.75 0.25 0
0.8 0.25 0
0.75 0.3 0
0.8 0.3 0
0.8 0.25 0
0.85 0.25 0
0.8 0.3 0
0.85 0.3 0
0.85 0.25 0
0.9 0.25 0
0.85 0.3 0
0.9 0.3 0
0.9 0.25 0
0.95 0.25 0
0.9 0.3 0
0.95 0.3 0
1.05 0.25 0
1.1 0.25 0
1.05 0.3 0
1.1 0.3 0
1.1 0.25 0
1.15 0.25 0
1.1 0.3 0
1.15 0.3 0
1.15 0.25 0
1.2 0.25 0
1.15 0.3 0
1.2 0.3 0
1.2 0.25 0
1.25 0.25 0
1.2 0.3 0
1.25 0.3 0
1.25 0.25 0
1.3 0.25 0
1.25 0.3 0
1.3 0.3 0
1.3 0.25 0
1.35 0.25 0
1.3 0.3 0
1.35 0.3 0
1.75 0.25 0
1.8 0.25 0
1.75 0.3 0
1.8 0.3 0
1.8 0.25 0
1.85 0.25 0
1.8 0.3 0
1.85 0.3 0
1.85 0.25 0
1.9 0.25 0
1.85 0.3 0
1.9 0.3 0
1.9 0.25 0
1.95 0.25 0
1.9 0.3 0
1.95 0.3 0
0.15 0.3 0
0.2 0.3 0
0.15 0.35 0
0.2 0.35 0
0.2 0.3 0
0.25 0.3 0
0.2 0.35 0
0.25 0.35 0
0.25 0.3 0
0.3 0.3 0
0.25 0.35 0
0.3 0.35 0
0.3 0.3 0
0.35 0.3 0
0.3 0.35 0
0.35 0.35 0
0.35 0.3 0
0.4 0.3 0
0.35 0.35 0
0.4 0.35 0
0.4 0.3 0
0.45 0.3 0
0.4 0.35 0
0.45 0.35 0
0.45 0.3 0
0.5 0.3 0
0.45 0.35 0
0.5 0.35 0
0.5 0.3 0
0.55 0.3 0
0.5 0.35 0
0.55 0.35 0
1.05 0.3 0
1.1 0.3 0
1.05 0.35 0
1.1 0.35 0
0.85 0.45 0
0.9 0.45 0
0.85 0.5 0
0.9 0.5 0
0.9 0.45 0
0.95 0.45 0
0.9 0.5 0
0.95 0.5 0
1.9 0.45 0
1.95 0.45 0
1.9 0.5 0
1.95 0.5 0
1.95 0.45 0
2 0.45 0
1.95 0.5 0
2 0.5 0
0.85 0.5 0
0.9 0.5 0
0.85 0.55 0
0.9 0.55 0
0.9 0.5 0
0.95 0.5 0
0.9 0.55 0
0.95 0.55 0
1.9 0.5 0
1.95 0.5 0
1.9 0.55 0
1.95 0.55 0
1.95 0.5 0
2 0.5 0
1.95 0.55 0
2 0.55 0
0.2 0.85 0
0.25 0.85 0
0.2 0.9 0
0.25 0.9 0
0.25 0.85 0
0.3 0.85 0
0.25 0.9 0
0.3 0.9 0
0.1 0.9 0
0.15 0.9 0
0.1 0.95 0
0.15 0.95 0
0.15 0.9 0
0.2 0.9 0
0.15 0.95 0
0.2 0.95 0
0.2 0.9 0
0.25 0.9 0
0.2 0.95 0
0.25 0.95 0
0.25 0.9 0
0.3 0.9 0
0.25 0.95 0
0.3 0.95 0
0 0.95 0
0.05 0.95 0
0 1 0
0.05 1 0
0.05 0.95 0
0.1 0.95 0
0.05 1 0
0.1 1 0
0.1 0.95 0
0.15 0.95 0
0.1 1 0
0.15 1 0
0.15 0.95 0
0.2 0.95 0
0.15 1 0
0.2 1 0
0.2 0.95 0
0.25 0.95 0
0.2 1 0
0.25 1 0
0.25 0.95 0
0.3 0.95 0
0.25 1 0
0.3 1 0
0.3 0.95 0
0.35 0.95 0
0.3 1 0
0.35 1 0
0.35 0.95 0
0.4 0.95 0
0.35 1 0
0.4 1 0
0.4 0.95 0
0.45 0.95 0
0.4 1 0
0.45 1 0
0.45 0.95 0
0.5 0.95 0
0.45 1 0
0.5 1 0
0.5 0.95 0
0.55 0.95 0
0.5 1 0
0.55 1 0
0.55 0.95 0
0.6 0.95 0
0.55 1 0
0.6 1 0
0.6 0.95 0
0.65 0.95 0
0.6 1 0
0.65 1 0
0.65 0.95 0
0.7 0.95 0
0.65 1 0
0.7 1 0
0.7 0.95 0
0.75 0.95 0
0.7 1 0
0.75 1 0
0.75 0.95 0
0.8 0.95 0
0.75 1 0
0.8 1 0
0.8 0.95 0
0.85 0.95 0
0.8 1 0
0.85 1 0
0.85 0.95 0
0.9 0.95 0
0.85 1 0
0.9 1 0
0.9 0.95 0
0.95 0.95 0
0.9 1 0
0.95 1 0
0.95 0.95 0
1 0.95 0
0.95 1 0
1 1 0
1 0.95 0
1.05 0.95 0
1 1 0
1.05 1 0
1.05 0.95 0
1.1 0.95 0
1.05 1 0
1.1 1 0
1.1 0.95 0
1.15 0.95 0
1.1 1 0
1.15 1 0
1.15 0.95 0
1.2 0.95 0
1.15 1 0
1.2 1 0
1.2 0.95 0
1.25 0.95 0
1.2 1 0
1.25 1 0
1.25 0.95 0
1.3 0.95 0
1.25 1 0
1.3 1 0
1.3 0 0
1.325 0 0
1.3 0.025 0
1.325 0.025 0
1.325 0 0
1.35 0 0
1.325 0.025 0
1.35 0.025 0
1.3 0.025 0
1.325 0.025 0
1.3 0.05 0
1.325 0.05 0
1.325 0.025 0
1.35 0.025 0
1.325 0.05 0
1.35 0.05 0
1.35 0 0
1.375 0 0
1.35 0.025 0
1.375 0.025 0
1.375 0 0
1.4 0 0
1.375 0.025 0
1.4 0.025 0
1.35 0.025 0
1.375 0.025 0
1.35 0.05 0
1.375 0.05 0
1.375 0.025 0
1.4 0.025 0
1.375 0.05 0
1.4 0.05 0
1.4 0 0
1.425 0 0
1.4 0.025 0
1.425 0.025 0
1.425 0 0
1.45 0 0
1.425 0.025 0
1.45 0.025 0
1.4 0.025 0
1.425 0.025 0
1.4 0.05 0
1.425 0.05 0
1.425 0.025 0
1.45 0.025 0
1.425 0.05 0
1.45 0.05 0
1.45 0 0
1.475 0 0
1.45 0.025 0
1.475 0.025 0
1.475 0 0
1.5 0 0
1.475 0.025 0
1.5 0.025 0
1.45 0.025 0
1.475 0.025 0
1.45 0.05 0
1.475 0.05 0
1.475 0.025 0
1.5 0.025 0
1.475 0.05 0
1.5 0.05 0
1.5 0 0
1.525 0 0
1.5 0.025 0
1.525 0.025 0
1.525 0 0
1.55 0 0
1.525 0.025 0
1.55 0.025 0
1.5 0.025 0
1.525 0.025 0
1.5 0.05 0
1.525 0.05 0
1.525 0.025 0
1.55 0.025 0
1.525 0.05 0
1.55 0.05 0
1.55 0 0
1.575 0 0
1.55 0.025 0
1.575 0.025 0
1.575 0 0
1.6 0 0
1.575 0.025 0
1.6 0.025 0
1.55 0.025 0
1.575 0.025 0
1.55 0.05 0
1.575 0.05 0
1.575 0.025 0
1.6 0.025 0
1.575 0.05 0
1.6 0.05 0
1.6 0 0
1.625 0 0
1.6 0.025 0
1.625 0.025 0
1.625 0 0
1.65 0 0
1.625 0.025 0
1.65 0.025 0
1.6 0.025 0
1.625 0.025 0
1.6 0.05 0
1.625 0.05 0
1.625 0.025 0
1.65 0.025 0
1.625 0.05 0
1.65 0.05 0
1.65 0 0
1.675 0 0
1.65 0.025 0
1.675 0.025 0
1.675 0 0
1.7 0 0
1.675 0.025 0
1.7 0.025 0
1.65 0.025 0
1.675 0.025 0
1.65 0.05 0
1.675 0.05 0
1.675 0.025 0
1.7 0.025 0
1.675 0.05 0
1.7 0.05 0
1.7 0 0
1.725 0 0
1.7 0.025 0
1.725 0.025 0
1.725 0 0
1.75 0 0
1.725 0.025 0
1.75 0.025 0
1.7 0.025 0
1.725 0.025 0
1.7 0.05 0
1.725 0.05 0
1.725 0.025 0
1.75 0.025 0
1.725 0.05 0
1.75 0.05 0
1.75 0 0
1.775 0 0
1.75 0.025 0
1.775 0.025 0
1.775 0 0
1.8 0 0
1.775 0.025 0
1.8 0.025 0
1.75 0.025 0
1.775 0.025 0
1.75 0.05 0
1.775 0.05 0
1.775 0.025 0
1.8 0.025 0
1.775 0.05 0
1.8 0.05 0
1.8 0 0
1.825 0 0
1.8 0.025 0
1.825 0.025 0
1.825 0 0
1.85 0 0
1.825 0.025 0
1.85 0.025 0
1.8 0.025 0
1.825 0.025 0
1.8 0.05 0
1.825 0.05 0
1.825 0.025 0
1.85 0.025 0
1.825 0.05 0
1.85 0.05 0
1.85 0 0
1.875 0 0
1.85 0.025 0
1.875 0.025 0
1.875 0 0
1.9 0 0
1.875 0.025 0
1.9 0.025 0
1.85 0.025 0
1.875 0.025 0
1.85 0.05 0
1.875 0.05 0
1.875 0.025 0
1.9 0.025 0
1.875 0.05 0
1.9 0.05 0
1.9 0 0
1.925 0 0
1.9 0.025 0
1.925 0.025 0
1.925 0 0
1.95 0 0
1.925 0.025 0
1.95 0.025 0
1.9 0.025 0
1.925 0.025 0
1.9 0.05 0
1.925 0.05 0
1.925 0.025 0
1.95 0.025 0
1.925 0.05 0
1.95 0.05 0
1.95 0 0
1.975 0 0
1.95 0.025 0
1.975 0.025 0
1.975 0 0
2 0 0
1.975 0.025 0
2 0.025 0
1.95 0.025 0
1.975 0.025 0
1.95 0.05 0
1.975 0.05 0
1.975 0.025 0
2 0.025 0
1.975 0.05 0
2 0.05 0
0 0.05 0
0.025 0.05 0
0 0.075 0
0.025 0.075 0
0.025 0.05 0
0.05 0.05 0
0.025 0.075 0
0.05 0.075 0
0 0.075 0
0.025 0.075 0
0 0.1 0
0.025 0.1 0
0.025 0.075 0
0.05 0.075 0
0.025 0.1 0
0.05 0.1 0
0.05 0.05 0
0.075 0.05 0
0.05 0.075 0
0.075 0.075 0
0.075 0.05 0
0.1 0.05 0
0.075 0.075 0
0.1 0.075 0
0.05 0.075 0
0.075 0.075 0
0.05 0.1 0
0.075 0.1 0
0.075 0.075 0
0.1 0.075 0
0.075 0.1 0
0.1 0.1 0
0.3 0.05 0
0.325 0.05 0
0.3 0.075 0
0.325 0.075 0
0.325 0.05 0
0.35 0.05 0
0.325 0.075 0
0.35 0.075 0
0.3 0.075 0
0.325 0.075 0
0.3 0.1 0
0.325 0.1 0
0.325 0.075 0
0.35 0.075 0
0.325 0.1 0
0.35 0.1 0
0.35 0.05 0
0.375 0.05 0
0.35 0.075 0
0.375 0.075 0
0.375 0.05 0
0.4 0.05 0
0.375 0.075 0
0.4 0.075 0
0.35 0.075 0
0.375 0.075 0
0.35 0.1 0
0.375 0.1 0
0.375 0.075 0
0.4 0.075 0
0.375 0.1 0
0.4 0.1 0
0.4 0.05 0
0.425 0.05 0
0.4 0.075 0
0.425 0.075 0
0.425 0.05 0
0.45 0.05 0
0.425 0.075 0
0.45 0.075 0
0.4 0.075 0
0.425 0.075 0
0.4 0.1 0
0.425 0.1 0
0.425 0.075 0
0.45 0.075 0
0.425 0.1 0
0.45 0.1 0
0.45 0.05 0
0.475 0.05 0
0.45 0.075 0
0.475 0.075 0
0.475 0.05 0
0.5 0.05 0
0.475 0.075 0
0.5 0.075 0
0.45 0.075 0
0.475 0.075 0
0.45 0.1 0
0.475 0.1 0
0.475 0.075 0
0.5 0.075 0
0.475 0.1 0
0.5 0.1 0
0.5 0.05 0
0.525 0.05 0
0.5 0.075 0
0.525 0.075 0
0.525 0.05 0
0.55 0.05 0
0.525 0.075 0
0.55 0.075 0
0.5 0.075 0
0.525 0.075 0
0.5 0.1 0
0.525 0.1 0
0.525 0.075 0
0.55 0.075 0
0.525 0.1 0
0.55 0.1 0
0.55 0.05 0
0.575 0.05 0
0.55 0.075 0
0.575 0.075 0
0.575 0.05 0
0.6 0.05 0
0.575 0.075 0
0.6 0.075 0
0.55 0.075 0
0.575 0.075 0
0.55 0.1 0
0.575 0.1 0
0.575 0.075 0
0.6 0.075 0
0.575 0.1 0
0.6 0.1 0
0.6 0.05 0
0.625 0.05 0
0.6 0.075 0
0.625 0.075 0
0.625 0.05 0
0.65 0.05 0
0.625 0.075 0
0.65 0.075 0
0.6 0.075 0
0.625 0.075 0
0.6 0.1 0
0.625 0.1 0
0.625 0.075 0
0.65 0.075 0
0.625 0.1 0
0.65 0.1 0
0.65 0.05 0
0.675 0.05 0
0.65 0.075 0
0.675 0.075 0
0.675 0.05 0
0.7 0.05 0
0.675 0.075 0
0.7 0.075 0
0.65 0.075 0
0.675 0.075 0
0.65 0.1 0
0.675 0.1 0
0.675 0.075 0
0.7 0.075 0
0.675 0.1 0
0.7 0.1 0
0.7 0.05 0
0.725 0.05 0
0.7 0.075 0
0.725 0.075 0
0.725 0.05 0
0.75 0.05 0
0.725 0.075 0
0.75 0.075 0
0.7 0.075 0
0.725 0.075 0
0.7 0.1 0
0.725 0.1 0
0.725 0.075 0
0.75 0.075 0
0.725 0.1 0
0.75 0.1 0
0.75 0.05 0
0.775 0.05 0
0.75 0.075 0
0.775 0.075 0
0.775 0.05 0
0.8 0.05 0
0.775 0.075 0
0.8 0.075 0
0.75 0.075 0
0.775 0.075 0
0.75 0.1 0
0.775 0.1 0
0.775 0.075 0
0.8 0.075 0
0.775 0.1 0
0.8 0.1 0
0.8 0.05 0
0.825 0.05 0
0.8 0.075 0
0.825 0.075 0
0.825 0.05 0
0.85 0.05 0
0.825 0.075 0
0.85 0.075 0
0.8 0.075 0
0.825 0.075 0
0.8 0.1 0
0.825 0.1 0
0.825 0.075 0
0.85 0.075 0
0.825 0.1 0
0.85 0.1 0
0.85 0.05 0
0.875 0.05 0
0.85 0.075 0
0.875 0.075 0
0.875 0.05 0
0.9 0.05 0
0.875 0.075 0
0.9 0.075 0
0.85 0.075 0
0.875 0.075 0
0.85 0.1 0
0.875 0.1 0
0.875 0.075 0
0.9 0.075 0
0.875 0.1 0
0.9 0.1 0
0.9 0.05 0
0.925 0.05 0
0.9 0.075 0
0.925 0.075 0
0.925 0.05 0
0.95 0.05 0
0.925 0.075 0
0.95 0.075 0
0.9 0.075 0
0.925 0.075 0
0.9 0.1 0
0.925 0.1 0
0.925 0.075 0
0.95 0.075 0
0.925 0.1 0
0.95 0.1 0
0.95 0.05 0
0.975 0.05 0
0.95 0.075 0
0.975 0.075 0
0.975 0.05 0
1 0.05 0
0.975 0.075 0
1 0.075 0
0.95 0.075 0
0.975 0.075 0
0.95 0.1 0
0.975 0.1 0
[...]
POINT_DATA 11636
SCALARS x_displacement double 1
LOOKUP_TABLE default
0 -1.58122 0 -0.925699 -1.58122 -2.74593 -0.925699 -1.8812 -2.74593 -3.69067 -1.8812 -2.70185 -3.69067 -4.48857 -2.70185 -3.41747 -4.48857 -5.19791 -3.41747 -4.05493 -5.19791 -5.87998 -4.05493 -4.63489 -5.87998 -6.57816 -4.63489 -5.20285 -6.57816 -7.29961 -5.20285 -5.78641 -7.29961 -8.01504 -5.78641 -6.39517 -8.01504 -8.7044 -6.39517 -7.02136 -8.7044 -9.36595 -7.02136 -7.6568 -9.36595 -10.0032 -7.6568 -8.29736 -10.0032 -10.6205 -8.29736 -8.94011 -10.6205 -11.2213 -8.94011 -9.5822 -11.2213 -11.8098 -9.5822 -10.2206 -11.8098 -12.3915 -10.2206 -10.8517 -12.3915 -12.9724 -10.8517 -11.4718 -12.9724 -13.5587 -11.4718 -12.0773 -13.5587 -14.1551 -12.0773 -12.6664 -14.1551 -14.7646 -12.6664 -13.238 -14.7646 -15.392 -13.238 -13.7905 -15.392 -16.0451 -13.7905 -14.3221 -16.0451 -16.7212 -14.3221 -14.8294 -16.7212 -17.3874 -14.8294 -15.3018 -17.3874 -17.9717 -15.3018 -15.7286 -17.9717 -18.3892 -15.7286 -16.1002 -1.8812 -2.70185 -1.33096 -1.94815 -2.70185 -3.41747 -1.94815 -2.52439 -3.41747 -4.05493 -2.52439 -3.04242 -4.05493 -4.63489 -3.04242 -3.47529 -2.52439 -3.04242 -1.77997 -2.18519 -3.04242 -3.47529 -2.18519 -2.54103 -3.59551 -4.15209 -2.75233 -3.12098 -4.15209 -4.50658 -3.12098 -3.44979 -4.50658 -4.76224 -3.44979 -3.73749 -4.76224 -4.93745 -3.73749 -4.02989 -4.93745 -5.18447 -4.02989 -4.20919 -5.18447 -5.50306 -4.20919 -4.45574 -7.8053 -7.82572 -6.1329 -6.10404 -7.82572 -7.79166 -6.10404 -6.05323 -7.79166 -7.73216 -6.05323 -5.85365 -7.73216 -7.66512 -5.85365 -5.59702 -7.66512 -7.59244 -5.59702 -5.4477 -7.59244 -7.52341 -5.4477 -4.93003 -9.72192 -9.9685 -7.53008 -7.74118 -9.9685 -9.93696 -7.74118 -7.89427 -9.93696 -10.4311 -7.89427 -7.78015 -10.4311 -10.1862 -7.78015 -7.86341 -0.0374474 -0.117744 0.0608297 0.213523 -0.117744 -0.634177 0.213523 0.765507 -0.634177 -0.483849 0.765507 0.151765 -0.483849 -0.669697 0.151765 0.155767 -0.669697 -0.903071 0.155767 0.0621732 -0.903071 -1.19716 0.0621732 -0.163152 -1.19716 -1.56088 -0.163152 -0.887376 -1.56088 -1.98 -0.887376 -1.32803 -6.1329 -6.10404 -4.44904 -4.39121 -1.0533 -1.16158 0.00727578 0.0135723 -1.16158 -1.20889 0.0135723 0.0209262 -2.15696 -2.39259 0.0285602 0.0329886 -2.39259 -2.42885 0.0329886 0.0352293 0.00727578 0.0135723 1.07395 1.19274 0.0135723 0.0209262 1.19274 1.24938 0.0285602 0.0329886 2.22483 2.46438 0.0329886 0.0352293 2.46438 2.50303 1.73429 2.13984 2.50274 3.01988 2.13984 2.49473 3.01988 3.45113 1.31201 1.92741 1.8838 2.70492 1.92741 2.50274 2.70492 3.42023 2.50274 3.01988 3.42023 4.05647 3.01988 3.45113 4.05647 4.63495 0 0.926862 0 1.59838 0.926862 1.8838 1.59838 2.77229 1.8838 2.70492 2.77229 3.72035 2.70492 3.42023 3.72035 4.51807 3.42023 4.05647 4.51807 5.22526 4.05647 4.63495 5.22526 5.90394 4.63495 5.2021 5.90394 6.59715 5.2021 5.78627 6.59715 7.31111 5.78627 6.39688 7.31111 8.0169 6.39688 7.02612 8.0169 8.69608 7.02612 7.6654 8.69608 9.34871 7.6654 8.30998 9.34871 9.97963 8.30998 8.95645 9.97963 10.5937 8.95645 9.6018 10.5937 11.1946 9.6018 10.2431 11.1946 11.7866 10.2431 10.8769 11.7866 12.3746 10.8769 11.4997 12.3746 12.9645 11.4997 12.1087 12.9645 13.5615 12.1087 12.7019 13.5615 14.1696 12.7019 13.2785 14.1696 14.7917 13.2785 13.8366 14.7917 15.4327 13.8366 14.3745 15.4327 16.0997 14.3745 14.8874 16.0997 16.7884 14.8874 15.364 16.7884 17.4651 15.364 15.7939 17.4651 18.0573 15.7939 16.1668 18.0573 18.4795 -18.3892 -18.5458 -17.2447 -17.3717 -18.5458 -18.6563 -17.3717 -17.5091 -17.2447 -17.3717 -16.1002 -16.2712 -17.3717 -17.5091 -16.2712 -16.4233 -18.6563 -18.7623 -17.5091 -17.6436 -18.7623 -18.8095 -17.6436 -17.7617 -17.5091 -17.6436 -16.4233 -16.5563 -17.6436 -17.7617 -16.5563 -16.6724 -18.8095 -18.7678 -17.7617 -17.8824 -18.7678 -19.2178 -17.8824 -18.0432 -17.7617 -17.8824 -16.6724 -16.7881 -17.8824 -18.0432 -16.7881 -16.8745 -19.2178 -19.4958 -18.0432 -18.1678 -19.4958 -19.6294 -18.1678 -18.2795 -18.0432 -18.1678 -16.8745 -16.892 -18.1678 -18.2795 -16.892 -17.0717 -19.6294 -19.8367 -18.2795 -18.203 -19.8367 -19.9994 -18.203 -18.6019 -18.2795 -18.203 -17.0717 -17.1044 -18.203 -18.6019 -17.1044 -17.363 -19.9994 -20.2029 -18.6019 -18.8499 -20.2029 -20.3848 -18.8499 -19.0508 -18.6019 -18.8499 -17.363 -17.6065 -18.8499 -19.0508 -17.6065 -17.8025 -20.3848 -20.5381 -19.0508 -19.211 -20.5381 -20.6594 -19.211 -19.3396 -19.0508 -19.211 -17.8025 -17.9445 -19.211 -19.3396 -17.9445 -18.0716 -20.6594 -20.7532 -19.3396 -19.4465 -20.7532 -20.8242 -19.4465 -19.5338 -19.3396 -19.4465 -18.0716 -18.1874 -19.4465 -19.5338 -18.1874 -18.2871 -20.8242 -20.8743 -19.5338 -19.6019 -20.8743 -20.905 -19.6019 -19.6526 -19.5338 -19.6019 -18.2871 -18.369 -19.6019 -19.6526 -18.369 -18.4341 -20.905 -20.9192 -19.6526 -19.6882 -20.9192 -20.9208 -19.6882 -19.7118 -19.6526 -19.6882 -18.4341 -18.4852 -19.6882 -19.7118 -18.4852 -18.5247 -20.9208 -20.9135 -19.7118 -19.7258 -20.9135 -20.9007 -19.7258 -19.7328 -19.7118 -19.7258 -18.5247 -18.5545 -19.7258 -19.7328 -18.5545 -18.5762 -20.9007 -20.8853 -19.7328 -19.7349 -20.8853 -20.8699 -19.7349 -19.7341 -19.7328 -19.7349 -18.5762 -18.5915 -19.7349 -19.7341 -18.5915 -18.6015 -20.8699 -20.8567 -19.7341 -19.7318 -20.8567 -20.8474 -19.7318 -19.7294 -19.7341 -19.7318 -18.6015 -18.6073 -19.7318 -19.7294 -18.6073 -18.6101 -20.8474 -20.843 -19.7294 -19.7279 -20.843 -20.8421 -19.7279 -19.7278 -19.7294 -19.7279 -18.6101 -18.6115 -19.7279 -19.7278 -18.6115 -18.613 0 -0.462849 0 -0.383077 -0.462849 -0.925699 -0.383077 -0.799119 0 -0.383077 0 -0.329773 -0.383077 -0.799119 -0.329773 -0.713654 -0.925699 -1.40345 -0.799119 -1.20047 -1.40345 -1.8812 -1.20047 -1.60608 -0.799119 -1.20047 -0.713654 -1.03991 -1.20047 -1.60608 -1.03991 -1.33096 -4.63489 -4.91887 -4.05509 -4.2776 -4.91887 -5.20285 -4.2776 -4.50449 -4.05509 -4.2776 -3.47529 -3.66644 -4.2776 -4.50449 -3.66644 -3.82884 -5.20285 -5.49463 -4.50449 -4.74707 -5.49463 -5.78641 -4.74707 -5.00823 -4.50449 -4.74707 -3.82884 -3.99365 -4.74707 -5.00823 -3.99365 -4.18777 -5.78641 -6.09079 -5.00823 -5.28635 -6.09079 -6.39517 -5.28635 -5.57605 -5.00823 -5.28635 -4.18777 -4.44861 -5.28635 -5.57605 -4.44861 -4.73417 -6.39517 -6.70826 -5.57605 -5.87336 -6.70826 -7.02136 -5.87336 -6.17828 -5.57605 -5.87336 -4.73417 -5.02493 -5.87336 -6.17828 -5.02493 -5.32264 -7.02136 -7.33908 -6.17828 -6.48755 -7.33908 -7.6568 -6.48755 -6.80299 -6.17828 -6.48755 -5.32264 -5.62882 -6.48755 -6.80299 -5.62882 -5.94257 -7.6568 -7.97708 -6.80299 -7.12249 -7.97708 -8.29736 -7.12249 -7.44657 -6.80299 -7.12249 -5.94257 -6.26503 -7.12249 -7.44657 -6.26503 -6.59382 -8.29736 -8.61874 -7.44657 -7.77321 -8.61874 -8.94011 -7.77321 -8.10286 -7.44657 -7.77321 -6.59382 -6.92764 -7.77321 -8.10286 -6.92764 -7.26634 -8.94011 -9.26115 -8.10286 -8.43404 -9.26115 -9.5822 -8.43404 -8.76674 -8.10286 -8.43404 -7.26634 -7.60937 -8.43404 -8.76674 -7.60937 -7.95589 -9.5822 -9.9014 -8.76674 -9.09947 -9.9014 -10.2206 -9.09947 -9.43163 -8.76674 -9.09947 -7.95589 -8.30368 -9.09947 -9.43163 -8.30368 -8.65219 -10.2206 -10.5362 -9.43163 -9.76189 -10.5362 -10.8517 -9.76189 -10.0891 -9.43163 -9.76189 -8.65219 -8.99787 -9.76189 -10.0891 -8.99787 -9.34081 -10.8517 -11.1618 -10.0891 -10.4123 -11.1618 -11.4718 -10.4123 -10.73 -10.0891 -10.4123 -9.34081 -9.67693 -10.4123 -10.73 -9.67693 -10.0066 -11.4718 -11.7745 -10.73 -11.0418 -11.7745 -12.0773 -11.0418 -11.346 -10.73 -11.0418 -10.0066 -10.3257 -11.0418 -11.346 -10.3257 -10.635 -12.0773 -12.3719 -11.346 -11.6428 -12.3719 -12.6664 -11.6428 -11.931 -11.346 -11.6428 -10.635 -10.9309 -11.6428 -11.931 -10.9309 -11.2156 -12.6664 -12.9522 -11.931 -12.2114 -12.9522 -13.238 -12.2114 -12.4828 -11.931 -12.2114 -11.2156 -11.4865 -12.2114 -12.4828 -11.4865 -11.7468 -13.238 -13.5142 -12.4828 -12.7463 -13.5142 -13.7905 -12.7463 -12.9995 -12.4828 -12.7463 -11.7468 -11.9959 -12.7463 -12.9995 -11.9959 -12.2329 -13.7905 -14.0563 -12.9995 -13.244 -14.0563 -14.3221 -13.244 -13.4774 -12.9995 -13.244 -12.2329 -12.4572 -13.244 -13.4774 -12.4572 -12.6673 -14.3221 -14.5757 -13.4774 -13.7018 -14.5757 -14.8294 -13.7018 -13.9137 -13.4774 -13.7018 -12.6673 -12.858 -13.7018 -13.9137 -12.858 -13.0324 -14.8294 -15.0656 -13.9137 -14.1158 -15.0656 -15.3018 -14.1158 -14.3058 -13.9137 -14.1158 -13.0324 -13.1887 -14.1158 -14.3058 -13.1887 -13.3362 -15.3018 -15.5152 -14.3058 -14.4915 -15.5152 -15.7286 -14.4915 -14.671 -14.3058 -14.4915 -13.3362 -13.4812 -14.4915 -14.671 -13.4812 -13.6273 -15.7286 -15.9144 -14.671 -14.8472 -15.9144 -16.1002 -14.8472 -15.0148 -14.671 -14.8472 -13.6273 -13.7742 -14.8472 -15.0148 -13.7742 -13.9191 -16.1002 -16.2712 -15.0148 -15.1674 -16.2712 -16.4233 -15.1674 -15.3075 -15.0148 -15.1674 -13.9191 -14.056 -15.1674 -15.3075 -14.056 -14.1839 -16.4233 -16.5563 -15.3075 -15.4366 -16.5563 -16.6724 -15.4366 -15.5552 -15.3075 -15.4366 -14.1839 -14.308 -15.4366 -15.5552 -14.308 -14.4302 -16.6724 -16.7881 -15.5552 -15.6579 -16.7881 -16.8745 -15.6579 -15.7578 -15.5552 -15.6579 -14.4302 -14.5504 -15.6579 -15.7578 -14.5504 -14.6927 -16.8745 -16.892 -15.7578 -15.9388 -16.892 -17.0717 -15.9388 -16.1789 -15.7578 -15.9388 -14.6927 -14.8642 -15.9388 -16.1789 -14.8642 -15.0236 -17.0717 -17.1044 -16.1789 -16.2903 -17.1044 -17.363 -16.2903 -16.4023 -16.1789 -16.2903 -15.0236 -15.1435 -16.2903 -16.4023 -15.1435 -15.2019 -17.363 -17.6065 -16.4023 -16.505 -17.6065 -17.8025 -16.505 -16.5967 -16.4023 -16.505 -15.2019 -15.1599 -16.505 -16.5967 -15.1599 -15.3784 -17.8025 -17.9445 -16.5967 -16.7175 -17.9445 -18.0716 -16.7175 -16.848 -16.5967 -16.7175 -15.3784 -15.5483 -16.7175 -16.848 -15.5483 -15.6611 -18.0716 -18.1874 -16.848 -16.9692 -18.1874 -18.2871 -16.9692 -17.0794 -16.848 -16.9692 -15.6611 -15.7861 -16.9692 -17.0794 -15.7861 -15.9028 -18.2871 -18.369 -17.0794 -17.1707 -18.369 -18.4341 -17.1707 -17.2461 -17.0794 -17.1707 -15.9028 -15.9987 -17.1707 -17.2461 -15.9987 -16.0867 -18.4341 -18.4852 -17.2461 -17.3095 -18.4852 -18.5247 -17.3095 -17.3613 -17.2461 -17.3095 -16.0867 -16.1619 -17.3095 -17.3613 -16.1619 -16.2232 -18.5247 -18.5545 -17.3613 -17.4027 -18.5545 -18.5762 -17.4027 -17.4355 -17.3613 -17.4027 -16.2232 -16.2731 -17.4027 -17.4355 -16.2731 -16.3145 -18.5762 -18.5915 -17.4355 -17.4608 -18.5915 -18.6015 -17.4608 -17.4792 -17.4355 -17.4608 -16.3145 -16.3478 -17.4608 -17.4792 -16.3478 -16.373 -18.6015 -18.6073 -17.4792 -17.4913 -18.6073 -18.6101 -17.4913 -17.4981 -17.4792 -17.4913 -16.373 -16.3903 -17.4913 -17.4981 -16.3903 -16.4001 -18.6101 -18.6115 -17.4981 -17.5013 -18.6115 -18.613 -17.5013 -17.5039 -17.4981 -17.5013 -16.4001 -16.4043 -17.5013 -17.5039 -16.4043 -16.4071 0 -0.329773 0 -0.298617 -0.329773 -0.713654 -0.298617 -0.637048 0 -0.298617 0 -0.249525 -0.298617 -0.637048 -0.249525 -0.450974 -0.713654 -1.03991 -0.637048 -0.860893 -1.03991 -1.33096 -0.860893 -1.07632 -0.637048 -0.860893 -0.450974 -0.59618 -0.860893 -1.07632 -0.59618 -0.784894 -1.33096 -1.63955 -1.07632 -1.33223 -1.63955 -1.94815 -1.33223 -1.61636 -1.07632 -1.33223 -0.784894 -1.04582 -1.33223 -1.61636 -1.04582 -1.33984 -1.94815 -2.23627 -1.61636 -1.88931 -2.23627 -2.52439 -1.88931 -2.15218 -1.61636 -1.88931 -1.33984 -1.57723 -1.88931 -2.15218 -1.57723 -1.77997 -3.47529 -3.66644 -3.00816 -3.15 -3.66644 -3.82884 -3.15 -3.28393 -3.00816 -3.15 -2.54103 -2.70987 -3.15 -3.28393 -2.70987 -2.86032 -3.82884 -3.99365 -3.28393 -3.39627 -3.99365 -4.18777 -3.39627 -3.50359 -3.28393 -3.39627 -2.86032 -3.00009 -3.39627 -3.50359 -3.00009 -3.15008 -4.18777 -4.44861 -3.50359 -3.66409 -4.44861 -4.73417 -3.66409 -3.90767 -3.50359 -3.66409 -3.15008 -3.33049 -3.66409 -3.90767 -3.33049 -3.49999 -4.73417 -5.02493 -3.90767 -4.14929 -5.02493 -5.32264 -4.14929 -4.43919 -3.90767 -4.14929 -3.49999 -3.64891 -4.14929 -4.43919 -3.64891 -3.76499 -5.32264 -5.62882 -4.43919 -4.75053 -5.62882 -5.94257 -4.75053 -5.07405 -4.43919 -4.75053 -3.76499 -3.84838 -4.75053 -5.07405 -3.84838 -4.12487 -5.94257 -6.26503 -5.07405 -5.40317 -6.26503 -6.59382 -5.40317 -5.74171 -5.07405 -5.40317 -4.12487 -4.42901 -5.40317 -5.74171 -4.42901 -4.82059 -6.59382 -6.92764 -5.74171 -6.08512 -6.92764 -7.26634 -6.08512 -6.43386 -5.74171 -6.08512 -4.82059 -5.30862 -6.08512 -6.43386 -5.30862 -5.78834 -7.26634 -7.60937 -6.43386 -6.79322 -7.60937 -7.95589 -6.79322 -7.15344 -6.43386 -6.79322 -5.78834 -6.18299 -6.79322 -7.15344 -6.18299 -6.56812 -7.95589 -8.30368 -7.15344 -7.52289 -8.30368 -8.65219 -7.52289 -7.88625 -7.15344 -7.52289 -6.56812 -6.92288 -7.52289 -7.88625 -6.92288 -7.30166 -8.65219 -8.99787 -7.88625 -8.25491 -8.99787 -9.34081 -8.25491 -8.61044 -7.88625 -8.25491 -7.30166 -7.64376 -8.25491 -8.61044 -7.64376 -8.0108 -9.34081 -9.67693 -8.61044 -8.96632 -9.67693 -10.0066 -8.96632 -9.30324 -8.61044 -8.96632 -8.0108 -8.34031 -8.96632 -9.30324 -8.34031 -8.68365 -10.0066 -10.3257 -9.30324 -9.63466 -10.3257 -10.635 -9.63466 -9.9434 -9.30324 -9.63466 -8.68365 -8.99031 -9.63466 -9.9434 -8.99031 -9.30048 -10.635 -10.9309 -9.9434 -10.2416 -10.9309 -11.2156 -10.2416 -10.5189 -9.9434 -10.2416 -9.30048 -9.57717 -10.2416 -10.5189 -9.57717 -9.85326 -11.2156 -11.4865 -10.5189 -10.7836 -11.4865 -11.7468 -10.7836 -11.0315 -10.5189 -10.7836 -9.85326 -10.1032 -10.7836 -11.0315 -10.1032 -10.3493 -11.7468 -11.9959 -11.0315 -11.271 -11.9959 -12.2329 -11.271 -11.4957 -11.0315 -11.271 -10.3493 -10.5903 -11.271 -11.4957 -10.5903 -10.8264 -12.2329 -12.4572 -11.4957 -11.7093 -12.4572 -12.6673 -11.7093 -11.8946 -11.4957 -11.7093 -10.8264 -11.0213 -11.7093 -11.8946 -11.0213 -11.166 -12.6673 -12.858 -11.8946 -12.0485 -12.858 -13.0324 -12.0485 -12.1772 -11.8946 -12.0485 -11.166 -11.2729 -12.0485 -12.1772 -11.2729 -11.3562 -13.0324 -13.1887 -12.1772 -12.2877 -13.1887 -13.3362 -12.2877 -12.3891 -12.1772 -12.2877 -11.3562 -11.4192 -12.2877 -12.3891 -11.4192 -11.4673 -13.3362 -13.4812 -12.3891 -12.4855 -13.4812 -13.6273 -12.4855 -12.5784 -12.3891 -12.4855 -11.4673 -11.5026 -12.4855 -12.5784 -11.5026 -11.5311 -13.6273 -13.7742 -12.5784 -12.6767 -13.7742 -13.9191 -12.6767 -12.7857 -12.5784 -12.6767 -11.5311 -11.562 -12.6767 -12.7857 -11.562 -11.6156 -13.9191 -14.056 -12.7857 -12.9087 -14.056 -14.1839 -12.9087 -13.0397 -12.7857 -12.9087 -11.6156 -11.7283 -12.9087 -13.0397 -11.7283 -11.8792 -14.1839 -14.308 -13.0397 -13.1704 -14.308 -14.4302 -13.1704 -13.303 -13.0397 -13.1704 -11.8792 -12.0226 -13.1704 -13.303 -12.0226 -12.1584 -14.4302 -14.5504 -13.303 -13.438 -14.5504 -14.6927 -13.438 -13.578 -13.303 -13.438 -12.1584 -12.2946 -13.438 -13.578 -12.2946 -12.4289 -14.6927 -14.8642 -13.578 -13.7188 -14.8642 -15.0236 -13.7188 -13.8481 -13.578 -13.7188 -12.4289 -12.5627 -13.7188 -13.8481 -12.5627 -12.6992 -15.0236 -15.1435 -13.8481 -13.966 -15.1435 -15.2019 -13.966 -14.0724 -13.8481 -13.966 -12.6992 -12.8308 -13.966 -14.0724 -12.8308 -12.9554 -15.2019 -15.1599 -14.0724 -14.1872 -15.1599 -15.3784 -14.1872 -14.3605 -14.0724 -14.1872 -12.9554 -13.0906 -14.1872 -14.3605 -13.0906 -13.2051 -15.3784 -15.5483 -14.3605 -14.4519 -15.5483 -15.6611 -14.4519 -14.5586 -14.3605 -14.4519 -13.2051 -13.2908 -14.4519 -14.5586 -13.2908 -13.4027 -15.6611 -15.7861 -14.5586 -14.588 -15.7861 -15.9028 -14.588 -14.7289 -14.5586 -14.588 -13.4027 -13.3815 -14.588 -14.7289 -13.3815 -13.5893 -15.9028 -15.9987 -14.7289 -14.851 -15.9987 -16.0867 -14.851 -14.9604 -14.7289 -14.851 -13.5893 -13.7557 -14.851 -14.9604 -13.7557 -13.8843 -16.0867 -16.1619 -14.9604 -15.046 -16.1619 -16.2232 -15.046 -15.1115 -14.9604 -15.046 -13.8843 -13.9588 -15.046 -15.1115 -13.9588 -14.0265 -16.2232 -16.2731 -15.1115 -15.168 -16.2731 -16.3145 -15.168 -15.2167 -15.1115 -15.168 -14.0265 -14.0904 -15.168 -15.2167 -14.0904 -14.1466 -16.3145 -16.3478 -15.2167 -15.2569 -16.3478 -16.373 -15.2569 -15.2876 -15.2167 -15.2569 -14.1466 -14.1916 -15.2569 -15.2876 -14.1916 -14.2261 -16.373 -16.3903 -15.2876 -15.3091 -16.3903 -16.4001 -15.3091 -15.3215 -15.2876 -15.3091 -14.2261 -14.2506 -15.3091 -15.3215 -14.2506 -14.2657 -16.4001 -16.4043 -15.3215 -15.3262 -16.4043 -16.4071 -15.3262 -15.3279 -15.3215 -15.3262 -14.2657 -14.2707 -15.3262 -15.3279 -14.2707 -14.2697 0 -0.249525 0 -0.0738996 -0.249525 -0.450974 -0.0738996 -0.192771 0 -0.0738996 0 -0.136153 -0.0738996 -0.192771 -0.136153 -0.286922 -0.450974 -0.59618 -0.192771 -0.316131 -0.59618 -0.784894 -0.316131 -0.498002 -0.192771 -0.316131 -0.286922 -0.529594 -0.316131 -0.498002 -0.529594 -0.50856 -0.784894 -1.04582 -0.498002 -0.836087 -1.04582 -1.33984 -0.836087 -1.09932 -0.498002 -0.836087 -0.50856 -0.675646 -0.836087 -1.09932 -0.675646 -0.789405 -1.33984 -1.57723 -1.09932 -1.26655 -1.57723 -1.77997 -1.26655 -1.42536 -1.09932 -1.26655 -0.789405 -0.905583 -1.26655 -1.42536 -0.905583 -1.06171 -1.77997 -1.98258 -1.42536 -1.60615 -1.98258 -2.18519 -1.60615 -1.79447 -1.42536 -1.60615 -1.06171 -1.24378 -1.60615 -1.79447 -1.24378 -1.43973 -2.18519 -2.36311 -1.79447 -1.97503 -2.36311 -2.54103 -1.97503 -2.14513 -1.79447 -1.97503 -1.43973 -1.61565 -1.97503 -2.14513 -1.61565 -1.77371 -2.54103 -2.70987 -2.14513 -2.30954 -2.70987 -2.86032 -2.30954 -2.47161 -2.14513 -2.30954 -1.77371 -1.93335 -2.30954 -2.47161 -1.93335 -2.09684 -2.86032 -3.00009 -2.47161 -2.63359 -3.00009 -3.15008 -2.63359 -2.80039 -2.47161 -2.63359 -2.09684 -2.26299 -2.63359 -2.80039 -2.26299 -2.42853 -3.15008 -3.33049 -2.80039 -2.9645 -3.33049 -3.49999 -2.9645 -3.11903 -2.80039 -2.9645 -2.42853 -2.59254 -2.9645 -3.11903 -2.59254 -2.76091 -3.49999 -3.64891 -3.11903 -3.26901 -3.64891 -3.76499 -3.26901 -3.41849 -3.11903 -3.26901 -2.76091 -2.92801 -3.26901 -3.41849 -2.92801 -3.09676 -3.76499 -3.84838 -3.41849 -3.61256 -3.84838 -4.12487 -3.61256 -3.8366 -3.41849 -3.61256 -3.09676 -3.27868 -3.61256 -3.8366 -3.27868 -3.44501 -4.12487 -4.42901 -3.8366 -3.94326 -4.42901 -4.82059 -3.94326 -4.04988 -3.8366 -3.94326 -3.44501 -3.59016 -3.94326 -4.04988 -3.59016 -3.67953 -4.82059 -5.30862 -4.04988 -4.277 -5.30862 -5.78834 -4.277 -4.76647 -4.04988 -4.277 -3.67953 -3.56598 -4.277 -4.76647 -3.56598 -3.75345 -5.78834 -6.18299 -4.76647 -5.43131 -6.18299 -6.56812 -5.43131 -5.91465 -4.76647 -5.43131 -3.75345 -4.12324 -5.43131 -5.91465 -4.12324 -4.84072 -6.56812 -6.92288 -5.91465 -6.32582 -6.92288 -7.30166 -6.32582 -6.70027 -5.91465 -6.32582 -4.84072 -5.29578 -6.32582 -6.70027 -5.29578 -5.61169 -7.30166 -7.64376 -6.70027 -7.07544 -7.64376 -8.0108 -7.07544 -7.41088 -6.70027 -7.07544 -5.61169 -6.03284 -7.07544 -7.41088 -6.03284 -6.37027 -8.0108 -8.34031 -7.41088 -7.75579 -8.34031 -8.68365 -7.75579 -8.06594 -7.41088 -7.75579 -6.37027 -6.66608 -7.75579 -8.06594 -6.66608 -6.93915 -8.68365 -8.99031 -8.06594 -8.37764 -8.99031 -9.30048 -8.37764 -8.66169 -8.06594 -8.37764 -6.93915 -7.21793 -8.37764 -8.66169 -7.21793 -7.60546 -9.30048 -9.57717 -8.66169 -8.94434 -9.57717 -9.85326 -8.94434 -9.20563 -8.66169 -8.94434 -7.60546 -8.20513 -8.94434 -9.20563 -8.20513 -8.68262 -9.85326 -10.1032 -9.20563 -9.48713 -10.1032 -10.3493 -9.48713 -9.75906 -9.20563 -9.48713 -8.68262 -8.95561 -9.48713 -9.75906 -8.95561 -9.14393 -10.3493 -10.5903 -9.75906 -10.0422 -10.5903 -10.8264 -10.0422 -10.2017 -9.75906 -10.0422 -9.14393 -9.30616 -10.0422 -10.2017 -9.30616 -9.43222 -10.8264 -11.0213 -10.2017 -10.3228 -11.0213 -11.166 -10.3228 -10.417 -10.2017 -10.3228 -9.43222 -9.52877 -10.3228 -10.417 -9.52877 -9.59608 -11.166 -11.2729 -10.417 -10.4869 -11.2729 -11.3562 -10.4869 -10.5288 -10.417 -10.4869 -9.59608 -9.63373 -10.4869 -10.5288 -9.63373 -9.64474 -11.3562 -11.4192 -10.5288 -10.5467 -11.4192 -11.4673 -10.5467 -10.5445 -10.5288 -10.5467 -9.64474 -9.63248 -10.5467 -10.5445 -9.63248 -9.60113 -11.4673 -11.5026 -10.5445 -10.5298 -11.5026 -11.5311 -10.5298 -10.5067 -10.5445 -10.5298 -9.60113 -9.55797 -10.5298 -10.5067 -9.55797 -9.50642 -11.5311 -11.562 -10.5067 -10.476 -11.562 -11.6156 -10.476 -10.4539 -10.5067 -10.476 -9.50642 -9.43656 -10.476 -10.4539 -9.43656 -9.3506 -11.6156 -11.7283 -10.4539 -10.5267 -11.7283 -11.8792 -10.5267 -10.7077 -10.4539 -10.5267 -9.3506 -9.30081 -10.5267 -10.7077 -9.30081 -9.48768 -11.8792 -12.0226 -10.7077 -10.8535 -12.0226 -12.1584 -10.8535 -10.9926 -10.7077 -10.8535 -9.48768 -9.66773 -10.8535 -10.9926 -9.66773 -9.83298 -12.1584 -12.2946 -10.9926 -11.1366 -12.2946 -12.4289 -11.1366 -11.283 -10.99