# vtk DataFile Version 3.0
#This file was generated by the deal.II library on 2016/10/8 at 12:47:06
ASCII
DATASET UNSTRUCTURED_GRID

POINTS 32 double
0 0 0
0.5 0 0
0 0.5 0
0.5 0.5 0
0.5 0 0
1 0 0
0.5 0.5 0
1 0.5 0
1 0 0
1.5 0 0
1 0.5 0
1.5 0.5 0
1.5 0 0
2 0 0
1.5 0.5 0
2 0.5 0
0 0.5 0
0.5 0.5 0
0 1 0
0.5 1 0
0.5 0.5 0
1 0.5 0
0.5 1 0
1 1 0
1 0.5 0
1.5 0.5 0
1 1 0
1.5 1 0
1.5 0.5 0
2 0.5 0
1.5 1 0
2 1 0

CELLS 8 40
4	0	1	3	2
4	4	5	7	6
4	8	9	11	10
4	12	13	15	14
4	16	17	19	18
4	20	21	23	22
4	24	25	27	26
4	28	29	31	30

CELL_TYPES 8
 9 9 9 9 9 9 9 9
POINT_DATA 32
SCALARS x_displacement double 1
LOOKUP_TABLE default
0 59.2803 0 -3.2814e-13 59.2803 100.373 -3.2814e-13 -6.48948e-13 100.373 124.952 -6.48948e-13 -7.81002e-13 124.952 130.307 -7.81002e-13 -1.06915e-12 0 -3.2814e-13 0 -59.2803 -3.2814e-13 -6.48948e-13 -59.2803 -100.373 -6.48948e-13 -7.81002e-13 -100.373 -124.952 -7.81002e-13 -1.06915e-12 -124.952 -130.307 
SCALARS y_displacement double 1
LOOKUP_TABLE default
0 51.144 0 43.7647 51.144 145.019 43.7647 140.07 145.019 271.871 140.07 269.356 271.871 410.2 269.356 430.554 0 43.7647 0 51.144 43.7647 140.07 51.144 145.019 140.07 269.356 145.019 271.871 269.356 430.554 271.871 410.2 
SCALARS x_load double 1
LOOKUP_TABLE default
0 0 0 0 0 0 0 0 0 0 0 0 0 0 0 0 0 0 0 0 0 0 0 0 0 0 0 0 0 0 0 0 
SCALARS y_load double 1
LOOKUP_TABLE default
0 0 0 0 0 0 0 0 0 0 0 0 0 0 0 1 0 0 0 0 0 0 0 0 0 0 0 0 0 1 0 0 
