# vtk DataFile Version 3.0
#This file was generated by the deal.II library on 2016/3/9 at 8:35:54
ASCII
DATASET UNSTRUCTURED_GRID

POINTS 32 double
0 0 0
0.5 0 0
0 0.5 0
0.5 0.5 0
0.5 0 0
1 0 0
0.5 0.5 0
1 0.5 0
1 0 0
1.5 0 0
1 0.5 0
1.5 0.5 0
1.5 0 0
2 0 0
1.5 0.5 0
2 0.5 0
0 0.5 0
0.5 0.5 0
0 1 0
0.5 1 0
0.5 0.5 0
1 0.5 0
0.5 1 0
1 1 0
1 0.5 0
1.5 0.5 0
1 1 0
1.5 1 0
1.5 0.5 0
2 0.5 0
1.5 1 0
2 1 0

CELLS 8 40
4	0	1	3	2
4	4	5	7	6
4	8	9	11	10
4	12	13	15	14
4	16	17	19	18
4	20	21	23	22
4	24	25	27	26
4	28	29	31	30

CELL_TYPES 8
 9 9 9 9 9 9 9 9
POINT_DATA 32
SCALARS density double 1
LOOKUP_TABLE default
0.493292 0.493292 0.493292 0.493292 0.464511 0.464511 0.464511 0.464511 0.425768 0.425768 0.425768 0.425768 0.405128 0.405128 0.405128 0.405128 0.493292 0.493292 0.493292 0.493292 0.464511 0.464511 0.464511 0.464511 0.425768 0.425768 0.425768 0.425768 0.405128 0.405128 0.405128 0.405128 
