# vtk DataFile Version 3.0
#This file was generated by the deal.II library on 2016/3/9 at 8:36:02
ASCII
DATASET UNSTRUCTURED_GRID

POINTS 2048 double
0 0 0
0.0625 0 0
0 0.0625 0
0.0625 0.0625 0
0.0625 0 0
0.125 0 0
0.0625 0.0625 0
0.125 0.0625 0
0 0.0625 0
0.0625 0.0625 0
0 0.125 0
0.0625 0.125 0
0.0625 0.0625 0
0.125 0.0625 0
0.0625 0.125 0
0.125 0.125 0
0.125 0 0
0.1875 0 0
0.125 0.0625 0
0.1875 0.0625 0
0.1875 0 0
0.25 0 0
0.1875 0.0625 0
0.25 0.0625 0
0.125 0.0625 0
0.1875 0.0625 0
0.125 0.125 0
0.1875 0.125 0
0.1875 0.0625 0
0.25 0.0625 0
0.1875 0.125 0
0.25 0.125 0
0 0.125 0
0.0625 0.125 0
0 0.1875 0
0.0625 0.1875 0
0.0625 0.125 0
0.125 0.125 0
0.0625 0.1875 0
0.125 0.1875 0
0 0.1875 0
0.0625 0.1875 0
0 0.25 0
0.0625 0.25 0
0.0625 0.1875 0
0.125 0.1875 0
0.0625 0.25 0
0.125 0.25 0
0.125 0.125 0
0.1875 0.125 0
0.125 0.1875 0
0.1875 0.1875 0
0.1875 0.125 0
0.25 0.125 0
0.1875 0.1875 0
0.25 0.1875 0
0.125 0.1875 0
0.1875 0.1875 0
0.125 0.25 0
0.1875 0.25 0
0.1875 0.1875 0
0.25 0.1875 0
0.1875 0.25 0
0.25 0.25 0
0.25 0 0
0.3125 0 0
0.25 0.0625 0
0.3125 0.0625 0
0.3125 0 0
0.375 0 0
0.3125 0.0625 0
0.375 0.0625 0
0.25 0.0625 0
0.3125 0.0625 0
0.25 0.125 0
0.3125 0.125 0
0.3125 0.0625 0
0.375 0.0625 0
0.3125 0.125 0
0.375 0.125 0
0.375 0 0
0.4375 0 0
0.375 0.0625 0
0.4375 0.0625 0
0.4375 0 0
0.5 0 0
0.4375 0.0625 0
0.5 0.0625 0
0.375 0.0625 0
0.4375 0.0625 0
0.375 0.125 0
0.4375 0.125 0
0.4375 0.0625 0
0.5 0.0625 0
0.4375 0.125 0
0.5 0.125 0
0.25 0.125 0
0.3125 0.125 0
0.25 0.1875 0
0.3125 0.1875 0
0.3125 0.125 0
0.375 0.125 0
0.3125 0.1875 0
0.375 0.1875 0
0.25 0.1875 0
0.3125 0.1875 0
0.25 0.25 0
0.3125 0.25 0
0.3125 0.1875 0
0.375 0.1875 0
0.3125 0.25 0
0.375 0.25 0
0.375 0.125 0
0.4375 0.125 0
0.375 0.1875 0
0.4375 0.1875 0
0.4375 0.125 0
0.5 0.125 0
0.4375 0.1875 0
0.5 0.1875 0
0.375 0.1875 0
0.4375 0.1875 0
0.375 0.25 0
0.4375 0.25 0
0.4375 0.1875 0
0.5 0.1875 0
0.4375 0.25 0
0.5 0.25 0
0 0.25 0
0.0625 0.25 0
0 0.3125 0
0.0625 0.3125 0
0.0625 0.25 0
0.125 0.25 0
0.0625 0.3125 0
0.125 0.3125 0
0 0.3125 0
0.0625 0.3125 0
0 0.375 0
0.0625 0.375 0
0.0625 0.3125 0
0.125 0.3125 0
0.0625 0.375 0
0.125 0.375 0
0.125 0.25 0
0.1875 0.25 0
0.125 0.3125 0
0.1875 0.3125 0
0.1875 0.25 0
0.25 0.25 0
0.1875 0.3125 0
0.25 0.3125 0
0.125 0.3125 0
0.1875 0.3125 0
0.125 0.375 0
0.1875 0.375 0
0.1875 0.3125 0
0.25 0.3125 0
0.1875 0.375 0
0.25 0.375 0
0 0.375 0
0.0625 0.375 0
0 0.4375 0
0.0625 0.4375 0
0.0625 0.375 0
0.125 0.375 0
0.0625 0.4375 0
0.125 0.4375 0
0 0.4375 0
0.0625 0.4375 0
0 0.5 0
0.0625 0.5 0
0.0625 0.4375 0
0.125 0.4375 0
0.0625 0.5 0
0.125 0.5 0
0.125 0.375 0
0.1875 0.375 0
0.125 0.4375 0
0.1875 0.4375 0
0.1875 0.375 0
0.25 0.375 0
0.1875 0.4375 0
0.25 0.4375 0
0.125 0.4375 0
0.1875 0.4375 0
0.125 0.5 0
0.1875 0.5 0
0.1875 0.4375 0
0.25 0.4375 0
0.1875 0.5 0
0.25 0.5 0
0.25 0.25 0
0.3125 0.25 0
0.25 0.3125 0
0.3125 0.3125 0
0.3125 0.25 0
0.375 0.25 0
0.3125 0.3125 0
0.375 0.3125 0
0.25 0.3125 0
0.3125 0.3125 0
0.25 0.375 0
0.3125 0.375 0
0.3125 0.3125 0
0.375 0.3125 0
0.3125 0.375 0
0.375 0.375 0
0.375 0.25 0
0.4375 0.25 0
0.375 0.3125 0
0.4375 0.3125 0
0.4375 0.25 0
0.5 0.25 0
0.4375 0.3125 0
0.5 0.3125 0
0.375 0.3125 0
0.4375 0.3125 0
0.375 0.375 0
0.4375 0.375 0
0.4375 0.3125 0
0.5 0.3125 0
0.4375 0.375 0
0.5 0.375 0
0.25 0.375 0
0.3125 0.375 0
0.25 0.4375 0
0.3125 0.4375 0
0.3125 0.375 0
0.375 0.375 0
0.3125 0.4375 0
0.375 0.4375 0
0.25 0.4375 0
0.3125 0.4375 0
0.25 0.5 0
0.3125 0.5 0
0.3125 0.4375 0
0.375 0.4375 0
0.3125 0.5 0
0.375 0.5 0
0.375 0.375 0
0.4375 0.375 0
0.375 0.4375 0
0.4375 0.4375 0
0.4375 0.375 0
0.5 0.375 0
0.4375 0.4375 0
0.5 0.4375 0
0.375 0.4375 0
0.4375 0.4375 0
0.375 0.5 0
0.4375 0.5 0
0.4375 0.4375 0
0.5 0.4375 0
0.4375 0.5 0
0.5 0.5 0
0.5 0 0
0.5625 0 0
0.5 0.0625 0
0.5625 0.0625 0
0.5625 0 0
0.625 0 0
0.5625 0.0625 0
0.625 0.0625 0
0.5 0.0625 0
0.5625 0.0625 0
0.5 0.125 0
0.5625 0.125 0
0.5625 0.0625 0
0.625 0.0625 0
0.5625 0.125 0
0.625 0.125 0
0.625 0 0
0.6875 0 0
0.625 0.0625 0
0.6875 0.0625 0
0.6875 0 0
0.75 0 0
0.6875 0.0625 0
0.75 0.0625 0
0.625 0.0625 0
0.6875 0.0625 0
0.625 0.125 0
0.6875 0.125 0
0.6875 0.0625 0
0.75 0.0625 0
0.6875 0.125 0
0.75 0.125 0
0.5 0.125 0
0.5625 0.125 0
0.5 0.1875 0
0.5625 0.1875 0
0.5625 0.125 0
0.625 0.125 0
0.5625 0.1875 0
0.625 0.1875 0
0.5 0.1875 0
0.5625 0.1875 0
0.5 0.25 0
0.5625 0.25 0
0.5625 0.1875 0
0.625 0.1875 0
0.5625 0.25 0
0.625 0.25 0
0.625 0.125 0
0.6875 0.125 0
0.625 0.1875 0
0.6875 0.1875 0
0.6875 0.125 0
0.75 0.125 0
0.6875 0.1875 0
0.75 0.1875 0
0.625 0.1875 0
0.6875 0.1875 0
0.625 0.25 0
0.6875 0.25 0
0.6875 0.1875 0
0.75 0.1875 0
0.6875 0.25 0
0.75 0.25 0
0.75 0 0
0.8125 0 0
0.75 0.0625 0
0.8125 0.0625 0
0.8125 0 0
0.875 0 0
0.8125 0.0625 0
0.875 0.0625 0
0.75 0.0625 0
0.8125 0.0625 0
0.75 0.125 0
0.8125 0.125 0
0.8125 0.0625 0
0.875 0.0625 0
0.8125 0.125 0
0.875 0.125 0
0.875 0 0
0.9375 0 0
0.875 0.0625 0
0.9375 0.0625 0
0.9375 0 0
1 0 0
0.9375 0.0625 0
1 0.0625 0
0.875 0.0625 0
0.9375 0.0625 0
0.875 0.125 0
0.9375 0.125 0
0.9375 0.0625 0
1 0.0625 0
0.9375 0.125 0
1 0.125 0
0.75 0.125 0
0.8125 0.125 0
0.75 0.1875 0
0.8125 0.1875 0
0.8125 0.125 0
0.875 0.125 0
0.8125 0.1875 0
0.875 0.1875 0
0.75 0.1875 0
0.8125 0.1875 0
0.75 0.25 0
0.8125 0.25 0
0.8125 0.1875 0
0.875 0.1875 0
0.8125 0.25 0
0.875 0.25 0
0.875 0.125 0
0.9375 0.125 0
0.875 0.1875 0
0.9375 0.1875 0
0.9375 0.125 0
1 0.125 0
0.9375 0.1875 0
1 0.1875 0
0.875 0.1875 0
0.9375 0.1875 0
0.875 0.25 0
0.9375 0.25 0
0.9375 0.1875 0
1 0.1875 0
0.9375 0.25 0
1 0.25 0
0.5 0.25 0
0.5625 0.25 0
0.5 0.3125 0
0.5625 0.3125 0
0.5625 0.25 0
0.625 0.25 0
0.5625 0.3125 0
0.625 0.3125 0
0.5 0.3125 0
0.5625 0.3125 0
0.5 0.375 0
0.5625 0.375 0
0.5625 0.3125 0
0.625 0.3125 0
0.5625 0.375 0
0.625 0.375 0
0.625 0.25 0
0.6875 0.25 0
0.625 0.3125 0
0.6875 0.3125 0
0.6875 0.25 0
0.75 0.25 0
0.6875 0.3125 0
0.75 0.3125 0
0.625 0.3125 0
0.6875 0.3125 0
0.625 0.375 0
0.6875 0.375 0
0.6875 0.3125 0
0.75 0.3125 0
0.6875 0.375 0
0.75 0.375 0
0.5 0.375 0
0.5625 0.375 0
0.5 0.4375 0
0.5625 0.4375 0
0.5625 0.375 0
0.625 0.375 0
0.5625 0.4375 0
0.625 0.4375 0
0.5 0.4375 0
0.5625 0.4375 0
0.5 0.5 0
0.5625 0.5 0
0.5625 0.4375 0
0.625 0.4375 0
0.5625 0.5 0
0.625 0.5 0
0.625 0.375 0
0.6875 0.375 0
0.625 0.4375 0
0.6875 0.4375 0
0.6875 0.375 0
0.75 0.375 0
0.6875 0.4375 0
0.75 0.4375 0
0.625 0.4375 0
0.6875 0.4375 0
0.625 0.5 0
0.6875 0.5 0
0.6875 0.4375 0
0.75 0.4375 0
0.6875 0.5 0
0.75 0.5 0
0.75 0.25 0
0.8125 0.25 0
0.75 0.3125 0
0.8125 0.3125 0
0.8125 0.25 0
0.875 0.25 0
0.8125 0.3125 0
0.875 0.3125 0
0.75 0.3125 0
0.8125 0.3125 0
0.75 0.375 0
0.8125 0.375 0
0.8125 0.3125 0
0.875 0.3125 0
0.8125 0.375 0
0.875 0.375 0
0.875 0.25 0
0.9375 0.25 0
0.875 0.3125 0
0.9375 0.3125 0
0.9375 0.25 0
1 0.25 0
0.9375 0.3125 0
1 0.3125 0
0.875 0.3125 0
0.9375 0.3125 0
0.875 0.375 0
0.9375 0.375 0
0.9375 0.3125 0
1 0.3125 0
0.9375 0.375 0
1 0.375 0
0.75 0.375 0
0.8125 0.375 0
0.75 0.4375 0
0.8125 0.4375 0
0.8125 0.375 0
0.875 0.375 0
0.8125 0.4375 0
0.875 0.4375 0
0.75 0.4375 0
0.8125 0.4375 0
0.75 0.5 0
0.8125 0.5 0
0.8125 0.4375 0
0.875 0.4375 0
0.8125 0.5 0
0.875 0.5 0
0.875 0.375 0
0.9375 0.375 0
0.875 0.4375 0
0.9375 0.4375 0
0.9375 0.375 0
1 0.375 0
0.9375 0.4375 0
1 0.4375 0
0.875 0.4375 0
0.9375 0.4375 0
0.875 0.5 0
0.9375 0.5 0
0.9375 0.4375 0
1 0.4375 0
0.9375 0.5 0
1 0.5 0
1 0 0
1.0625 0 0
1 0.0625 0
1.0625 0.0625 0
1.0625 0 0
1.125 0 0
1.0625 0.0625 0
1.125 0.0625 0
1 0.0625 0
1.0625 0.0625 0
1 0.125 0
1.0625 0.125 0
1.0625 0.0625 0
1.125 0.0625 0
1.0625 0.125 0
1.125 0.125 0
1.125 0 0
1.1875 0 0
1.125 0.0625 0
1.1875 0.0625 0
1.1875 0 0
1.25 0 0
1.1875 0.0625 0
1.25 0.0625 0
1.125 0.0625 0
1.1875 0.0625 0
1.125 0.125 0
1.1875 0.125 0
1.1875 0.0625 0
1.25 0.0625 0
1.1875 0.125 0
1.25 0.125 0
1 0.125 0
1.0625 0.125 0
1 0.1875 0
1.0625 0.1875 0
1.0625 0.125 0
1.125 0.125 0
1.0625 0.1875 0
1.125 0.1875 0
1 0.1875 0
1.0625 0.1875 0
1 0.25 0
1.0625 0.25 0
1.0625 0.1875 0
1.125 0.1875 0
1.0625 0.25 0
1.125 0.25 0
1.125 0.125 0
1.1875 0.125 0
1.125 0.1875 0
1.1875 0.1875 0
1.1875 0.125 0
1.25 0.125 0
1.1875 0.1875 0
1.25 0.1875 0
1.125 0.1875 0
1.1875 0.1875 0
1.125 0.25 0
1.1875 0.25 0
1.1875 0.1875 0
1.25 0.1875 0
1.1875 0.25 0
1.25 0.25 0
1.25 0 0
1.3125 0 0
1.25 0.0625 0
1.3125 0.0625 0
1.3125 0 0
1.375 0 0
1.3125 0.0625 0
1.375 0.0625 0
1.25 0.0625 0
1.3125 0.0625 0
1.25 0.125 0
1.3125 0.125 0
1.3125 0.0625 0
1.375 0.0625 0
1.3125 0.125 0
1.375 0.125 0
1.375 0 0
1.4375 0 0
1.375 0.0625 0
1.4375 0.0625 0
1.4375 0 0
1.5 0 0
1.4375 0.0625 0
1.5 0.0625 0
1.375 0.0625 0
1.4375 0.0625 0
1.375 0.125 0
1.4375 0.125 0
1.4375 0.0625 0
1.5 0.0625 0
1.4375 0.125 0
1.5 0.125 0
1.25 0.125 0
1.3125 0.125 0
1.25 0.1875 0
1.3125 0.1875 0
1.3125 0.125 0
1.375 0.125 0
1.3125 0.1875 0
1.375 0.1875 0
1.25 0.1875 0
1.3125 0.1875 0
1.25 0.25 0
1.3125 0.25 0
1.3125 0.1875 0
1.375 0.1875 0
1.3125 0.25 0
1.375 0.25 0
1.375 0.125 0
1.4375 0.125 0
1.375 0.1875 0
1.4375 0.1875 0
1.4375 0.125 0
1.5 0.125 0
1.4375 0.1875 0
1.5 0.1875 0
1.375 0.1875 0
1.4375 0.1875 0
1.375 0.25 0
1.4375 0.25 0
1.4375 0.1875 0
1.5 0.1875 0
1.4375 0.25 0
1.5 0.25 0
1 0.25 0
1.0625 0.25 0
1 0.3125 0
1.0625 0.3125 0
1.0625 0.25 0
1.125 0.25 0
1.0625 0.3125 0
1.125 0.3125 0
1 0.3125 0
1.0625 0.3125 0
1 0.375 0
1.0625 0.375 0
1.0625 0.3125 0
1.125 0.3125 0
1.0625 0.375 0
1.125 0.375 0
1.125 0.25 0
1.1875 0.25 0
1.125 0.3125 0
1.1875 0.3125 0
1.1875 0.25 0
1.25 0.25 0
1.1875 0.3125 0
1.25 0.3125 0
1.125 0.3125 0
1.1875 0.3125 0
1.125 0.375 0
1.1875 0.375 0
1.1875 0.3125 0
1.25 0.3125 0
1.1875 0.375 0
1.25 0.375 0
1 0.375 0
1.0625 0.375 0
1 0.4375 0
1.0625 0.4375 0
1.0625 0.375 0
1.125 0.375 0
1.0625 0.4375 0
1.125 0.4375 0
1 0.4375 0
1.0625 0.4375 0
1 0.5 0
1.0625 0.5 0
1.0625 0.4375 0
1.125 0.4375 0
1.0625 0.5 0
1.125 0.5 0
1.125 0.375 0
1.1875 0.375 0
1.125 0.4375 0
1.1875 0.4375 0
1.1875 0.375 0
1.25 0.375 0
1.1875 0.4375 0
1.25 0.4375 0
1.125 0.4375 0
1.1875 0.4375 0
1.125 0.5 0
1.1875 0.5 0
1.1875 0.4375 0
1.25 0.4375 0
1.1875 0.5 0
1.25 0.5 0
[...]
POINT_DATA 2048
SCALARS density double 1
LOOKUP_TABLE default
0.999421 0.999421 0.999421 0.999421 0.999411 0.999411 0.999411 0.999411 0.959944 0.959944 0.959944 0.959944 0.95266 0.95266 0.95266 0.95266 0.996418 0.996418 0.996418 0.996418 0.977851 0.977851 0.977851 0.977851 0.93184 0.93184 0.93184 0.93184 0.881913 0.881913 0.881913 0.881913 0.807152 0.807152 0.807152 0.807152 0.791092 0.791092 0.791092 0.791092 0.527888 0.527888 0.527888 0.527888 0.507908 0.507908 0.507908 0.507908 0.751273 0.751273 0.751273 0.751273 0.677886 0.677886 0.677886 0.677886 0.462033 0.462033 0.462033 0.462033 0.390506 0.390506 0.390506 0.390506 0.952486 0.952486 0.952486 0.952486 0.951971 0.951971 0.951971 0.951971 0.841286 0.841286 0.841286 0.841286 0.856807 0.856807 0.856807 0.856807 0.972075 0.972075 0.972075 0.972075 0.981679 0.981679 0.981679 0.981679 0.914686 0.914686 0.914686 0.914686 0.961159 0.961159 0.961159 0.961159 0.634039 0.634039 0.634039 0.634039 0.677409 0.677409 0.677409 0.677409 0.360989 0.360989 0.360989 0.360989 0.435696 0.435696 0.435696 0.435696 0.788055 0.788055 0.788055 0.788055 0.883698 0.883698 0.883698 0.883698 0.588636 0.588636 0.588636 0.588636 0.721796 0.721796 0.721796 0.721796 0.234368 0.234368 0.234368 0.234368 0.221334 0.221334 0.221334 0.221334 0.0564798 0.0564798 0.0564798 0.0564798 0.0503002 0.0503002 0.0503002 0.0503002 0.191468 0.191468 0.191468 0.191468 0.148647 0.148647 0.148647 0.148647 0.0393908 0.0393908 0.0393908 0.0393908 0.0274602 0.0274602 0.0274602 0.0274602 0.000888716 0.000888716 0.000888716 0.000888716 0.000512194 0.000512194 0.000512194 0.000512194 0 0 0 0 0 0 0 0 0.000357011 0.000357011 0.000357011 0.000357011 0.000355367 0.000355367 0.000355367 0.000355367 0 0 0 0 0 0 0 0 0.140213 0.140213 0.140213 0.140213 0.219707 0.219707 0.219707 0.219707 0.0322267 0.0322267 0.0322267 0.0322267 0.0906571 0.0906571 0.0906571 0.0906571 0.37295 0.37295 0.37295 0.37295 0.525315 0.525315 0.525315 0.525315 0.217681 0.217681 0.217681 0.217681 0.376535 0.376535 0.376535 0.376535 0.00508951 0.00508951 0.00508951 0.00508951 0.0325313 0.0325313 0.0325313 0.0325313 0.000691746 0.000691746 0.000691746 0.000691746 0.0108716 0.0108716 0.0108716 0.0108716 0.12887 0.12887 0.12887 0.12887 0.295845 0.295845 0.295845 0.295845 0.091413 0.091413 0.091413 0.091413 0.263881 0.263881 0.263881 0.263881 0.975344 0.975344 0.975344 0.975344 0.949351 0.949351 0.949351 0.949351 0.94596 0.94596 0.94596 0.94596 0.870957 0.870957 0.870957 0.870957 0.913252 0.913252 0.913252 0.913252 0.891562 0.891562 0.891562 0.891562 0.776093 0.776093 0.776093 0.776093 0.710949 0.710949 0.710949 0.710949 0.868806 0.868806 0.868806 0.868806 0.751636 0.751636 0.751636 0.751636 0.728656 0.728656 0.728656 0.728656 0.61007 0.61007 0.61007 0.61007 0.600393 0.600393 0.600393 0.600393 0.494712 0.494712 0.494712 0.494712 0.447118 0.447118 0.447118 0.447118 0.33054 0.33054 0.33054 0.33054 0.89499 0.89499 0.89499 0.89499 0.914078 0.914078 0.914078 0.914078 0.713215 0.713215 0.713215 0.713215 0.770484 0.770484 0.770484 0.770484 0.931917 0.931917 0.931917 0.931917 0.930762 0.930762 0.930762 0.930762 0.830908 0.830908 0.830908 0.830908 0.862787 0.862787 0.862787 0.862787 0.493878 0.493878 0.493878 0.493878 0.585726 0.585726 0.585726 0.585726 0.330536 0.330536 0.330536 0.330536 0.42955 0.42955 0.42955 0.42955 0.687224 0.687224 0.687224 0.687224 0.740127 0.740127 0.740127 0.740127 0.535594 0.535594 0.535594 0.535594 0.575969 0.575969 0.575969 0.575969 0.587339 0.587339 0.587339 0.587339 0.533918 0.533918 0.533918 0.533918 0.503224 0.503224 0.503224 0.503224 0.545419 0.545419 0.545419 0.545419 0.421376 0.421376 0.421376 0.421376 0.336471 0.336471 0.336471 0.336471 0.512073 0.512073 0.512073 0.512073 0.475098 0.475098 0.475098 0.475098 0.475913 0.475913 0.475913 0.475913 0.586508 0.586508 0.586508 0.586508 0.474266 0.474266 0.474266 0.474266 0.619748 0.619748 0.619748 0.619748 0.614694 0.614694 0.614694 0.614694 0.608142 0.608142 0.608142 0.608142 0.67191 0.67191 0.67191 0.67191 0.679904 0.679904 0.679904 0.679904 0.337021 0.337021 0.337021 0.337021 0.398079 0.398079 0.398079 0.398079 0.467519 0.467519 0.467519 0.467519 0.466499 0.466499 0.466499 0.466499 0.445028 0.445028 0.445028 0.445028 0.423825 0.423825 0.423825 0.423825 0.426419 0.426419 0.426419 0.426419 0.326573 0.326573 0.326573 0.326573 0.593965 0.593965 0.593965 0.593965 0.545089 0.545089 0.545089 0.545089 0.665252 0.665252 0.665252 0.665252 0.590594 0.590594 0.590594 0.590594 0.432299 0.432299 0.432299 0.432299 0.277132 0.277132 0.277132 0.277132 0.442058 0.442058 0.442058 0.442058 0.260123 0.260123 0.260123 0.260123 0.877955 0.877955 0.877955 0.877955 0.781949 0.781949 0.781949 0.781949 0.841281 0.841281 0.841281 0.841281 0.791796 0.791796 0.791796 0.791796 0.626755 0.626755 0.626755 0.626755 0.443081 0.443081 0.443081 0.443081 0.708685 0.708685 0.708685 0.708685 0.597322 0.597322 0.597322 0.597322 0.746483 0.746483 0.746483 0.746483 0.733936 0.733936 0.733936 0.733936 0.566253 0.566253 0.566253 0.566253 0.554381 0.554381 0.554381 0.554381 0.726905 0.726905 0.726905 0.726905 0.703561 0.703561 0.703561 0.703561 0.587518 0.587518 0.587518 0.587518 0.632379 0.632379 0.632379 0.632379 0.273544 0.273544 0.273544 0.273544 0.16646 0.16646 0.16646 0.16646 0.474913 0.474913 0.474913 0.474913 0.379649 0.379649 0.379649 0.379649 0.102986 0.102986 0.102986 0.102986 0.0617498 0.0617498 0.0617498 0.0617498 0.295884 0.295884 0.295884 0.295884 0.20752 0.20752 0.20752 0.20752 0.665066 0.665066 0.665066 0.665066 0.620881 0.620881 0.620881 0.620881 0.678937 0.678937 0.678937 0.678937 0.729052 0.729052 0.729052 0.729052 0.553814 0.553814 0.553814 0.553814 0.44519 0.44519 0.44519 0.44519 0.750351 0.750351 0.750351 0.750351 0.697931 0.697931 0.697931 0.697931 0.353474 0.353474 0.353474 0.353474 0.304281 0.304281 0.304281 0.304281 0.202522 0.202522 0.202522 0.202522 0.117198 0.117198 0.117198 0.117198 0.319273 0.319273 0.319273 0.319273 0.37357 0.37357 0.37357 0.37357 0.0966011 0.0966011 0.0966011 0.0966011 0.125806 0.125806 0.125806 0.125806 0.130282 0.130282 0.130282 0.130282 0.040912 0.040912 0.040912 0.040912 0.109274 0.109274 0.109274 0.109274 0.0288757 0.0288757 0.0288757 0.0288757 0.00609894 0.00609894 0.00609894 0.00609894 0.0139573 0.0139573 0.0139573 0.0139573 0.000672781 0.000672781 0.000672781 0.000672781 0.000311912 0.000311912 0.000311912 0.000311912 0.469676 0.469676 0.469676 0.469676 0.598888 0.598888 0.598888 0.598888 0.206601 0.206601 0.206601 0.206601 0.340841 0.340841 0.340841 0.340841 0.722271 0.722271 0.722271 0.722271 0.771938 0.771938 0.771938 0.771938 0.497325 0.497325 0.497325 0.497325 0.60951 0.60951 0.60951 0.60951 0.0536139 0.0536139 0.0536139 0.0536139 0.133369 0.133369 0.133369 0.133369 0.00560117 0.00560117 0.00560117 0.00560117 0.0270936 0.0270936 0.0270936 0.0270936 0.234507 0.234507 0.234507 0.234507 0.323626 0.323626 0.323626 0.323626 0.0643765 0.0643765 0.0643765 0.0643765 0.104529 0.104529 0.104529 0.104529 0.0233098 0.0233098 0.0233098 0.0233098 0.00332724 0.00332724 0.00332724 0.00332724 0.114974 0.114974 0.114974 0.114974 0.0459528 0.0459528 0.0459528 0.0459528 0 0 0 0 0 0 0 0 0.012887 0.012887 0.012887 0.012887 0.00240727 0.00240727 0.00240727 0.00240727 0.305961 0.305961 0.305961 0.305961 0.190627 0.190627 0.190627 0.190627 0.578606 0.578606 0.578606 0.578606 0.455045 0.455045 0.455045 0.455045 0.118232 0.118232 0.118232 0.118232 0.0770515 0.0770515 0.0770515 0.0770515 0.356421 0.356421 0.356421 0.356421 0.274848 0.274848 0.274848 0.274848 0 0 0 0 0 0 0 0 0.000427502 0.000427502 0.000427502 0.000427502 0.000256541 0.000256541 0.000256541 0.000256541 0 0 0 0 0 0 0 0 0 0 0 0 0 0 0 0 0.0465801 0.0465801 0.0465801 0.0465801 0.0243446 0.0243446 0.0243446 0.0243446 0.191009 0.191009 0.191009 0.191009 0.109929 0.109929 0.109929 0.109929 0.00905406 0.00905406 0.00905406 0.00905406 0.00146732 0.00146732 0.00146732 0.00146732 0.0484174 0.0484174 0.0484174 0.0484174 0.0136008 0.0136008 0.0136008 0.0136008 0.746555 0.746555 0.746555 0.746555 0.689905 0.689905 0.689905 0.689905 0.673582 0.673582 0.673582 0.673582 0.717762 0.717762 0.717762 0.717762 0.629865 0.629865 0.629865 0.629865 0.545051 0.545051 0.545051 0.545051 0.748873 0.748873 0.748873 0.748873 0.728442 0.728442 0.728442 0.728442 0.413944 0.413944 0.413944 0.413944 0.536038 0.536038 0.536038 0.536038 0.187612 0.187612 0.187612 0.187612 0.346717 0.346717 0.346717 0.346717 0.672536 0.672536 0.672536 0.672536 0.752478 0.752478 0.752478 0.752478 0.544377 0.544377 0.544377 0.544377 0.699366 0.699366 0.699366 0.699366 0.419968 0.419968 0.419968 0.419968 0.285327 0.285327 0.285327 0.285327 0.637625 0.637625 0.637625 0.637625 0.516155 0.516155 0.516155 0.516155 0.183007 0.183007 0.183007 0.183007 0.120589 0.120589 0.120589 0.120589 0.417977 0.417977 0.417977 0.417977 0.357268 0.357268 0.357268 0.357268 0.756974 0.756974 0.756974 0.756974 0.716963 0.716963 0.716963 0.716963 0.78714 0.78714 0.78714 0.78714 0.831199 0.831199 0.831199 0.831199 0.681398 0.681398 0.681398 0.681398 0.659806 0.659806 0.659806 0.659806 0.859441 0.859441 0.859441 0.859441 0.877564 0.877564 0.877564 0.877564 0 0 0 0 0 0 0 0 0.000888716 0.000888716 0.000888716 0.000888716 0.000512194 0.000512194 0.000512194 0.000512194 0 0 0 0 0 0 0 0 0.000357011 0.000357011 0.000357011 0.000357011 0.000355367 0.000355367 0.000355367 0.000355367 0.0564798 0.0564798 0.0564798 0.0564798 0.0503002 0.0503002 0.0503002 0.0503002 0.234368 0.234368 0.234368 0.234368 0.221334 0.221334 0.221334 0.221334 0.0393908 0.0393908 0.0393908 0.0393908 0.0274602 0.0274602 0.0274602 0.0274602 0.191468 0.191468 0.191468 0.191468 0.148647 0.148647 0.148647 0.148647 0.000691746 0.000691746 0.000691746 0.000691746 0.0108716 0.0108716 0.0108716 0.0108716 0.00508951 0.00508951 0.00508951 0.00508951 0.0325313 0.0325313 0.0325313 0.0325313 0.091413 0.091413 0.091413 0.091413 0.263881 0.263881 0.263881 0.263881 0.12887 0.12887 0.12887 0.12887 0.295845 0.295845 0.295845 0.295845 0.0322267 0.0322267 0.0322267 0.0322267 0.0906571 0.0906571 0.0906571 0.0906571 0.140213 0.140213 0.140213 0.140213 0.219707 0.219707 0.219707 0.219707 0.217681 0.217681 0.217681 0.217681 0.376535 0.376535 0.376535 0.376535 0.37295 0.37295 0.37295 0.37295 0.525315 0.525315 0.525315 0.525315 0.527888 0.527888 0.527888 0.527888 0.507908 0.507908 0.507908 0.507908 0.807152 0.807152 0.807152 0.807152 0.791092 0.791092 0.791092 0.791092 0.462033 0.462033 0.462033 0.462033 0.390506 0.390506 0.390506 0.390506 0.751273 0.751273 0.751273 0.751273 0.677886 0.677886 0.677886 0.677886 0.959944 0.959944 0.959944 0.959944 0.95266 0.95266 0.95266 0.95266 0.999421 0.999421 0.999421 0.999421 0.999411 0.999411 0.999411 0.999411 0.93184 0.93184 0.93184 0.93184 0.881913 0.881913 0.881913 0.881913 0.996418 0.996418 0.996418 0.996418 0.977851 0.977851 0.977851 0.977851 0.360989 0.360989 0.360989 0.360989 0.435696 0.435696 0.435696 0.435696 0.634039 0.634039 0.634039 0.634039 0.677409 0.677409 0.677409 0.677409 0.588636 0.588636 0.588636 0.588636 0.721796 0.721796 0.721796 0.721796 0.788055 0.788055 0.788055 0.788055 0.883698 0.883698 0.883698 0.883698 0.841286 0.841286 0.841286 0.841286 0.856807 0.856807 0.856807 0.856807 0.952486 0.952486 0.952486 0.952486 0.951971 0.951971 0.951971 0.951971 0.914686 0.914686 0.914686 0.914686 0.961159 0.961159 0.961159 0.961159 0.972075 0.972075 0.972075 0.972075 0.981679 0.981679 0.981679 0.981679 0.474266 0.474266 0.474266 0.474266 0.619748 0.619748 0.619748 0.619748 0.475913 0.475913 0.475913 0.475913 0.586508 0.586508 0.586508 0.586508 0.67191 0.67191 0.67191 0.67191 0.679904 0.679904 0.679904 0.679904 0.614694 0.614694 0.614694 0.614694 0.608142 0.608142 0.608142 0.608142 0.503224 0.503224 0.503224 0.503224 0.545419 0.545419 0.545419 0.545419 0.587339 0.587339 0.587339 0.587339 0.533918 0.533918 0.533918 0.533918 0.512073 0.512073 0.512073 0.512073 0.475098 0.475098 0.475098 0.475098 0.421376 0.421376 0.421376 0.421376 0.336471 0.336471 0.336471 0.336471 0.665252 0.665252 0.665252 0.665252 0.590594 0.590594 0.590594 0.590594 0.593965 0.593965 0.593965 0.593965 0.545089 0.545089 0.545089 0.545089 0.442058 0.442058 0.442058 0.442058 0.260123 0.260123 0.260123 0.260123 0.432299 0.432299 0.432299 0.432299 0.277132 0.277132 0.277132 0.277132 0.467519 0.467519 0.467519 0.467519 0.466499 0.466499 0.466499 0.466499 0.337021 0.337021 0.337021 0.337021 0.398079 0.398079 0.398079 0.398079 0.426419 0.426419 0.426419 0.426419 0.326573 0.326573 0.326573 0.326573 0.445028 0.445028 0.445028 0.445028 0.423825 0.423825 0.423825 0.423825 0.728656 0.728656 0.728656 0.728656 0.61007 0.61007 0.61007 0.61007 0.868806 0.868806 0.868806 0.868806 0.751636 0.751636 0.751636 0.751636 0.447118 0.447118 0.447118 0.447118 0.33054 0.33054 0.33054 0.33054 0.600393 0.600393 0.600393 0.600393 0.494712 0.494712 0.494712 0.494712 0.94596 0.94596 0.94596 0.94596 0.870957 0.870957 0.870957 0.870957 0.975344 0.975344 0.975344 0.975344 0.949351 0.949351 0.949351 0.949351 0.776093 0.776093 0.776093 0.776093 0.710949 0.710949 0.710949 0.710949 0.913252 0.913252 0.913252 0.913252 0.891562 0.891562 0.891562 0.891562 0.330536 0.330536 0.330536 0.330536 0.42955 0.42955 0.42955 0.42955 0.493878 0.493878 0.493878 0.493878 0.585726 0.585726 0.585726 0.585726 0.535594 0.535594 0.535594 0.535594 0.575969 0.575969 0.575969 0.575969 0.687224 0.687224 0.687224 0.687224 0.740127 0.740127 0.740127 0.740127 0.713215 0.713215 0.713215 0.713215 0.770484 0.770484 0.770484 0.770484 0.89499 0.89499 0.89499 0.89499 0.914078 0.914078 0.914078 0.914078 0.830908 0.830908 0.830908 0.830908 0.862787 0.862787 0.862787 0.862787 0.931917 0.931917 0.931917 0.931917 0.930762 0.930762 0.930762 0.930762 0.109274 0.109274 0.109274 0.109274 0.0288757 0.0288757 0.0288757 0.0288757 0.130282 0.130282 0.130282 0.130282 0.040912 0.040912 0.040912 0.040912 0.000672781 0.000672781 0.000672781 0.000672781 0.000311912 0.000311912 0.000311912 0.000311912 0.00609894 0.00609894 0.00609894 0.00609894 0.0139573 0.0139573 0.0139573 0.0139573 0.202522 0.202522 0.202522 0.202522 0.117198 0.117198 0.117198 0.117198 0.353474 0.353474 0.353474 0.353474 0.304281 0.304281 0.304281 0.304281 0.0966011 0.0966011 0.0966011 0.0966011 0.125806 0.125806 0.125806 0.125806 0.319273 0.319273 0.319273 0.319273 0.37357 0.37357 0.37357 0.37357 0.00560117 0.00560117 0.00560117 0.00560117 0.0270936 0.0270936 0.0270936 0.0270936 0.0536139 0.0536139 0.0536139 0.0536139 0.133369 0.133369 0.133369 0.133369 0.0643765 0.0643765 0.0643765 0.0643765 0.104529 0.104529 0.104529 0.104529 0.234507 0.234507 0.234507 0.234507 0.323626 0.323626 0.323626 0.323626 0.206601 0.206601 0.206601 0.206601 0.340841 0.340841 0.340841 0.340841 0.469676 0.469676 0.469676 0.469676 0.598888 0.598888 0.598888 0.598888 0.497325 0.497325 0.497325 0.497325 0.60951 0.60951 0.60951 0.60951 0.722271 0.722271 0.722271 0.722271 0.771938 0.771938 0.771938 0.771938 0.566253 0.566253 0.566253 0.566253 0.554381 0.554381 0.554381 0.554381 0.746483 0.746483 0.746483 0.746483 0.733936 0.733936 0.733936 0.733936 0.587518 0.587518 0.587518 0.587518 0.632379 0.632379 0.632379 0.632379 0.726905 0.726905 0.726905 0.726905 0.703561 0.703561 0.703561 0.703561 0.841281 0.841281 0.841281 0.841281 0.791796 0.791796 0.791796 0.791796 0.877955 0.877955 0.877955 0.877955 0.781949 0.781949 0.781949 0.781949 0.708685 0.708685 0.708685 0.708685 0.597322 0.597322 0.597322 0.597322 0.626755 0.626755 0.626755 0.626755 0.443081 0.443081 0.443081 0.443081 0.678937 0.678937 0.678937 0.678937 0.729052 0.729052 0.729052 0.729052 0.665066 0.665066 0.665066 0.665066 0.620881 0.620881 0.620881 0.620881 0.750351 0.750351 0.750351 0.750351 0.697931 0.697931 0.697931 0.697931 0.553814 0.553814 0.553814 0.553814 0.44519 0.44519 0.44519 0.44519 0.474913 0.474913 0.474913 0.474913 0.379649 0.379649 0.379649 0.379649 0.273544 0.273544 0.273544 0.273544 0.16646 0.16646 0.16646 0.16646 0.295884 0.295884 0.295884 0.295884 0.20752 0.20752 0.20752 0.20752 0.102986 0.102986 0.102986 0.102986 0.0617498 0.0617498 0.0617498 0.0617498 0.187612 0.187612 0.187612 0.187612 0.346717 0.346717 0.346717 0.346717 0.413944 0.413944 0.413944 0.413944 0.536038 0.536038 0.536038 0.536038 0.544377 0.544377 0.544377 0.544377 0.699366 0.699366 0.699366 0.699366 0.672536 0.672536 0.672536 0.672536 0.752478 0.752478 0.752478 0.752478 0.673582 0.673582 0.673582 0.673582 0.717762 0.717762 0.717762 0.717762 0.746555 0.746555 0.746555 0.746555 0.689905 0.689905 0.689905 0.689905 0.748873 0.748873 0.748873 0.748873 0.728442 0.728442 0.728442 0.728442 0.629865 0.629865 0.629865 0.629865 0.545051 0.545051 0.545051 0.545051 0.78714 0.78714 0.78714 0.78714 0.831199 0.831199 0.831199 0.831199 0.756974 0.756974 0.756974 0.756974 0.716963 0.716963 0.716963 0.716963 0.859441 0.859441 0.859441 0.859441 0.877564 0.877564 0.877564 0.877564 0.681398 0.681398 0.681398 0.681398 0.659806 0.659806 0.659806 0.659806 0.637625 0.637625 0.637625 0.637625 0.516155 0.516155 0.516155 0.516155 0.419968 0.419968 0.419968 0.419968 0.285327 0.285327 0.285327 0.285327 0.417977 0.417977 0.417977 0.417977 0.357268 0.357268 0.357268 0.357268 0.183007 0.183007 0.183007 0.183007 0.120589 0.120589 0.120589 0.120589 0.578606 0.578606 0.578606 0.578606 0.455045 0.455045 0.455045 0.455045 0.305961 0.305961 0.305961 0.305961 0.190627 0.190627 0.190627 0.190627 0.356421 0.356421 0.356421 0.356421 0.274848 0.274848 0.274848 0.274848 0.118232 0.118232 0.118232 0.118232 0.0770515 0.0770515 0.0770515 0.0770515 0.114974 0.114974 0.114974 0.114974 0.0459528 0.0459528 0.0459528 0.0459528 0.0233098 0.0233098 0.0233098 0.0233098 0.00332724 0.00332724 0.00332724 0.00332724 0.012887 0.012887 0.012887 0.012887 0.00240727 0.00240727 0.00240727 0.00240727 0 0 0 0 0 0 0 0 0.191009 0.191009 0.191009 0.191009 0.109929 0.109929 0.109929 0.109929 0.0465801 0.0465801 0.0465801 0.0465801 0.0243446 0.0243446 0.0243446 0.0243446 0.0484174 0.0484174 0.0484174 0.0484174 0.0136008 0.0136008 0.0136008 0.0136008 0.00905406 0.00905406 0.00905406 0.00905406 0.00146732 0.00146732 0.00146732 0.00146732 0.000427502 0.000427502 0.000427502 0.000427502 0.000256541 0.000256541 0.000256541 0.000256541 0 0 0 0 0 0 0 0 0 0 0 0 0 0 0 0 0 0 0 0 0 0 0 0 
