# vtk DataFile Version 3.0
#This file was generated by the deal.II library on 2016/2/10 at 17:07:10
ASCII
DATASET UNSTRUCTURED_GRID

POINTS 3200 double
0 0 0
0.05 0 0
0 0.05 0
0.05 0.05 0
0.05 0 0
0.1 0 0
0.05 0.05 0
0.1 0.05 0
0.1 0 0
0.15 0 0
0.1 0.05 0
0.15 0.05 0
0.15 0 0
0.2 0 0
0.15 0.05 0
0.2 0.05 0
0.2 0 0
0.25 0 0
0.2 0.05 0
0.25 0.05 0
0.25 0 0
0.3 0 0
0.25 0.05 0
0.3 0.05 0
0.3 0 0
0.35 0 0
0.3 0.05 0
0.35 0.05 0
0.35 0 0
0.4 0 0
0.35 0.05 0
0.4 0.05 0
0.4 0 0
0.45 0 0
0.4 0.05 0
0.45 0.05 0
0.45 0 0
0.5 0 0
0.45 0.05 0
0.5 0.05 0
0.5 0 0
0.55 0 0
0.5 0.05 0
0.55 0.05 0
0.55 0 0
0.6 0 0
0.55 0.05 0
0.6 0.05 0
0.6 0 0
0.65 0 0
0.6 0.05 0
0.65 0.05 0
0.65 0 0
0.7 0 0
0.65 0.05 0
0.7 0.05 0
0.7 0 0
0.75 0 0
0.7 0.05 0
0.75 0.05 0
0.75 0 0
0.8 0 0
0.75 0.05 0
0.8 0.05 0
0.8 0 0
0.85 0 0
0.8 0.05 0
0.85 0.05 0
0.85 0 0
0.9 0 0
0.85 0.05 0
0.9 0.05 0
0.9 0 0
0.95 0 0
0.9 0.05 0
0.95 0.05 0
0.95 0 0
1 0 0
0.95 0.05 0
1 0.05 0
1 0 0
1.05 0 0
1 0.05 0
1.05 0.05 0
1.05 0 0
1.1 0 0
1.05 0.05 0
1.1 0.05 0
1.1 0 0
1.15 0 0
1.1 0.05 0
1.15 0.05 0
1.15 0 0
1.2 0 0
1.15 0.05 0
1.2 0.05 0
1.2 0 0
1.25 0 0
1.2 0.05 0
1.25 0.05 0
1.25 0 0
1.3 0 0
1.25 0.05 0
1.3 0.05 0
1.3 0 0
1.35 0 0
1.3 0.05 0
1.35 0.05 0
1.35 0 0
1.4 0 0
1.35 0.05 0
1.4 0.05 0
1.4 0 0
1.45 0 0
1.4 0.05 0
1.45 0.05 0
1.45 0 0
1.5 0 0
1.45 0.05 0
1.5 0.05 0
1.5 0 0
1.55 0 0
1.5 0.05 0
1.55 0.05 0
1.55 0 0
1.6 0 0
1.55 0.05 0
1.6 0.05 0
1.6 0 0
1.65 0 0
1.6 0.05 0
1.65 0.05 0
1.65 0 0
1.7 0 0
1.65 0.05 0
1.7 0.05 0
1.7 0 0
1.75 0 0
1.7 0.05 0
1.75 0.05 0
1.75 0 0
1.8 0 0
1.75 0.05 0
1.8 0.05 0
1.8 0 0
1.85 0 0
1.8 0.05 0
1.85 0.05 0
1.85 0 0
1.9 0 0
1.85 0.05 0
1.9 0.05 0
1.9 0 0
1.95 0 0
1.9 0.05 0
1.95 0.05 0
1.95 0 0
2 0 0
1.95 0.05 0
2 0.05 0
0 0.05 0
0.05 0.05 0
0 0.1 0
0.05 0.1 0
0.05 0.05 0
0.1 0.05 0
0.05 0.1 0
0.1 0.1 0
0.1 0.05 0
0.15 0.05 0
0.1 0.1 0
0.15 0.1 0
0.15 0.05 0
0.2 0.05 0
0.15 0.1 0
0.2 0.1 0
0.2 0.05 0
0.25 0.05 0
0.2 0.1 0
0.25 0.1 0
0.25 0.05 0
0.3 0.05 0
0.25 0.1 0
0.3 0.1 0
0.3 0.05 0
0.35 0.05 0
0.3 0.1 0
0.35 0.1 0
0.35 0.05 0
0.4 0.05 0
0.35 0.1 0
0.4 0.1 0
0.4 0.05 0
0.45 0.05 0
0.4 0.1 0
0.45 0.1 0
0.45 0.05 0
0.5 0.05 0
0.45 0.1 0
0.5 0.1 0
0.5 0.05 0
0.55 0.05 0
0.5 0.1 0
0.55 0.1 0
0.55 0.05 0
0.6 0.05 0
0.55 0.1 0
0.6 0.1 0
0.6 0.05 0
0.65 0.05 0
0.6 0.1 0
0.65 0.1 0
0.65 0.05 0
0.7 0.05 0
0.65 0.1 0
0.7 0.1 0
0.7 0.05 0
0.75 0.05 0
0.7 0.1 0
0.75 0.1 0
0.75 0.05 0
0.8 0.05 0
0.75 0.1 0
0.8 0.1 0
0.8 0.05 0
0.85 0.05 0
0.8 0.1 0
0.85 0.1 0
0.85 0.05 0
0.9 0.05 0
0.85 0.1 0
0.9 0.1 0
0.9 0.05 0
0.95 0.05 0
0.9 0.1 0
0.95 0.1 0
0.95 0.05 0
1 0.05 0
0.95 0.1 0
1 0.1 0
1 0.05 0
1.05 0.05 0
1 0.1 0
1.05 0.1 0
1.05 0.05 0
1.1 0.05 0
1.05 0.1 0
1.1 0.1 0
1.1 0.05 0
1.15 0.05 0
1.1 0.1 0
1.15 0.1 0
1.15 0.05 0
1.2 0.05 0
1.15 0.1 0
1.2 0.1 0
1.2 0.05 0
1.25 0.05 0
1.2 0.1 0
1.25 0.1 0
1.25 0.05 0
1.3 0.05 0
1.25 0.1 0
1.3 0.1 0
1.3 0.05 0
1.35 0.05 0
1.3 0.1 0
1.35 0.1 0
1.35 0.05 0
1.4 0.05 0
1.35 0.1 0
1.4 0.1 0
1.4 0.05 0
1.45 0.05 0
1.4 0.1 0
1.45 0.1 0
1.45 0.05 0
1.5 0.05 0
1.45 0.1 0
1.5 0.1 0
1.5 0.05 0
1.55 0.05 0
1.5 0.1 0
1.55 0.1 0
1.55 0.05 0
1.6 0.05 0
1.55 0.1 0
1.6 0.1 0
1.6 0.05 0
1.65 0.05 0
1.6 0.1 0
1.65 0.1 0
1.65 0.05 0
1.7 0.05 0
1.65 0.1 0
1.7 0.1 0
1.7 0.05 0
1.75 0.05 0
1.7 0.1 0
1.75 0.1 0
1.75 0.05 0
1.8 0.05 0
1.75 0.1 0
1.8 0.1 0
1.8 0.05 0
1.85 0.05 0
1.8 0.1 0
1.85 0.1 0
1.85 0.05 0
1.9 0.05 0
1.85 0.1 0
1.9 0.1 0
1.9 0.05 0
1.95 0.05 0
1.9 0.1 0
1.95 0.1 0
1.95 0.05 0
2 0.05 0
1.95 0.1 0
2 0.1 0
0 0.1 0
0.05 0.1 0
0 0.15 0
0.05 0.15 0
0.05 0.1 0
0.1 0.1 0
0.05 0.15 0
0.1 0.15 0
0.1 0.1 0
0.15 0.1 0
0.1 0.15 0
0.15 0.15 0
0.15 0.1 0
0.2 0.1 0
0.15 0.15 0
0.2 0.15 0
0.2 0.1 0
0.25 0.1 0
0.2 0.15 0
0.25 0.15 0
0.25 0.1 0
0.3 0.1 0
0.25 0.15 0
0.3 0.15 0
0.3 0.1 0
0.35 0.1 0
0.3 0.15 0
0.35 0.15 0
0.35 0.1 0
0.4 0.1 0
0.35 0.15 0
0.4 0.15 0
0.4 0.1 0
0.45 0.1 0
0.4 0.15 0
0.45 0.15 0
0.45 0.1 0
0.5 0.1 0
0.45 0.15 0
0.5 0.15 0
0.5 0.1 0
0.55 0.1 0
0.5 0.15 0
0.55 0.15 0
0.55 0.1 0
0.6 0.1 0
0.55 0.15 0
0.6 0.15 0
0.6 0.1 0
0.65 0.1 0
0.6 0.15 0
0.65 0.15 0
0.65 0.1 0
0.7 0.1 0
0.65 0.15 0
0.7 0.15 0
0.7 0.1 0
0.75 0.1 0
0.7 0.15 0
0.75 0.15 0
0.75 0.1 0
0.8 0.1 0
0.75 0.15 0
0.8 0.15 0
0.8 0.1 0
0.85 0.1 0
0.8 0.15 0
0.85 0.15 0
0.85 0.1 0
0.9 0.1 0
0.85 0.15 0
0.9 0.15 0
0.9 0.1 0
0.95 0.1 0
0.9 0.15 0
0.95 0.15 0
0.95 0.1 0
1 0.1 0
0.95 0.15 0
1 0.15 0
1 0.1 0
1.05 0.1 0
1 0.15 0
1.05 0.15 0
1.05 0.1 0
1.1 0.1 0
1.05 0.15 0
1.1 0.15 0
1.1 0.1 0
1.15 0.1 0
1.1 0.15 0
1.15 0.15 0
1.15 0.1 0
1.2 0.1 0
1.15 0.15 0
1.2 0.15 0
1.2 0.1 0
1.25 0.1 0
1.2 0.15 0
1.25 0.15 0
1.25 0.1 0
1.3 0.1 0
1.25 0.15 0
1.3 0.15 0
1.3 0.1 0
1.35 0.1 0
1.3 0.15 0
1.35 0.15 0
1.35 0.1 0
1.4 0.1 0
1.35 0.15 0
1.4 0.15 0
1.4 0.1 0
1.45 0.1 0
1.4 0.15 0
1.45 0.15 0
1.45 0.1 0
1.5 0.1 0
1.45 0.15 0
1.5 0.15 0
1.5 0.1 0
1.55 0.1 0
1.5 0.15 0
1.55 0.15 0
1.55 0.1 0
1.6 0.1 0
1.55 0.15 0
1.6 0.15 0
1.6 0.1 0
1.65 0.1 0
1.6 0.15 0
1.65 0.15 0
1.65 0.1 0
1.7 0.1 0
1.65 0.15 0
1.7 0.15 0
1.7 0.1 0
1.75 0.1 0
1.7 0.15 0
1.75 0.15 0
1.75 0.1 0
1.8 0.1 0
1.75 0.15 0
1.8 0.15 0
1.8 0.1 0
1.85 0.1 0
1.8 0.15 0
1.85 0.15 0
1.85 0.1 0
1.9 0.1 0
1.85 0.15 0
1.9 0.15 0
1.9 0.1 0
1.95 0.1 0
1.9 0.15 0
1.95 0.15 0
1.95 0.1 0
2 0.1 0
1.95 0.15 0
2 0.15 0
0 0.15 0
0.05 0.15 0
0 0.2 0
0.05 0.2 0
0.05 0.15 0
0.1 0.15 0
0.05 0.2 0
0.1 0.2 0
0.1 0.15 0
0.15 0.15 0
0.1 0.2 0
0.15 0.2 0
0.15 0.15 0
0.2 0.15 0
0.15 0.2 0
0.2 0.2 0
0.2 0.15 0
0.25 0.15 0
0.2 0.2 0
0.25 0.2 0
0.25 0.15 0
0.3 0.15 0
0.25 0.2 0
0.3 0.2 0
0.3 0.15 0
0.35 0.15 0
0.3 0.2 0
0.35 0.2 0
0.35 0.15 0
0.4 0.15 0
0.35 0.2 0
0.4 0.2 0
0.4 0.15 0
0.45 0.15 0
0.4 0.2 0
0.45 0.2 0
0.45 0.15 0
0.5 0.15 0
0.45 0.2 0
0.5 0.2 0
0.5 0.15 0
0.55 0.15 0
0.5 0.2 0
0.55 0.2 0
0.55 0.15 0
0.6 0.15 0
0.55 0.2 0
0.6 0.2 0
0.6 0.15 0
0.65 0.15 0
0.6 0.2 0
0.65 0.2 0
0.65 0.15 0
0.7 0.15 0
0.65 0.2 0
0.7 0.2 0
0.7 0.15 0
0.75 0.15 0
0.7 0.2 0
0.75 0.2 0
0.75 0.15 0
0.8 0.15 0
0.75 0.2 0
0.8 0.2 0
0.8 0.15 0
0.85 0.15 0
0.8 0.2 0
0.85 0.2 0
0.85 0.15 0
0.9 0.15 0
0.85 0.2 0
0.9 0.2 0
0.9 0.15 0
0.95 0.15 0
0.9 0.2 0
0.95 0.2 0
0.95 0.15 0
1 0.15 0
0.95 0.2 0
1 0.2 0
1 0.15 0
1.05 0.15 0
1 0.2 0
1.05 0.2 0
1.05 0.15 0
1.1 0.15 0
1.05 0.2 0
1.1 0.2 0
1.1 0.15 0
1.15 0.15 0
1.1 0.2 0
1.15 0.2 0
1.15 0.15 0
1.2 0.15 0
1.15 0.2 0
1.2 0.2 0
1.2 0.15 0
1.25 0.15 0
1.2 0.2 0
1.25 0.2 0
1.25 0.15 0
1.3 0.15 0
1.25 0.2 0
1.3 0.2 0
1.3 0.15 0
1.35 0.15 0
1.3 0.2 0
1.35 0.2 0
1.35 0.15 0
1.4 0.15 0
1.35 0.2 0
1.4 0.2 0
1.4 0.15 0
1.45 0.15 0
1.4 0.2 0
1.45 0.2 0
1.45 0.15 0
1.5 0.15 0
1.45 0.2 0
1.5 0.2 0
1.5 0.15 0
1.55 0.15 0
1.5 0.2 0
1.55 0.2 0
1.55 0.15 0
1.6 0.15 0
1.55 0.2 0
1.6 0.2 0
1.6 0.15 0
1.65 0.15 0
1.6 0.2 0
1.65 0.2 0
1.65 0.15 0
1.7 0.15 0
1.65 0.2 0
1.7 0.2 0
1.7 0.15 0
1.75 0.15 0
1.7 0.2 0
1.75 0.2 0
1.75 0.15 0
1.8 0.15 0
1.75 0.2 0
1.8 0.2 0
1.8 0.15 0
1.85 0.15 0
1.8 0.2 0
1.85 0.2 0
1.85 0.15 0
1.9 0.15 0
1.85 0.2 0
1.9 0.2 0
1.9 0.15 0
1.95 0.15 0
1.9 0.2 0
1.95 0.2 0
1.95 0.15 0
2 0.15 0
1.95 0.2 0
2 0.2 0
0 0.2 0
0.05 0.2 0
0 0.25 0
0.05 0.25 0
0.05 0.2 0
0.1 0.2 0
0.05 0.25 0
0.1 0.25 0
0.1 0.2 0
0.15 0.2 0
0.1 0.25 0
0.15 0.25 0
0.15 0.2 0
0.2 0.2 0
0.15 0.25 0
0.2 0.25 0
0.2 0.2 0
0.25 0.2 0
0.2 0.25 0
0.25 0.25 0
0.25 0.2 0
0.3 0.2 0
0.25 0.25 0
0.3 0.25 0
0.3 0.2 0
0.35 0.2 0
0.3 0.25 0
0.35 0.25 0
0.35 0.2 0
0.4 0.2 0
0.35 0.25 0
0.4 0.25 0
0.4 0.2 0
0.45 0.2 0
0.4 0.25 0
0.45 0.25 0
0.45 0.2 0
0.5 0.2 0
0.45 0.25 0
0.5 0.25 0
0.5 0.2 0
0.55 0.2 0
0.5 0.25 0
0.55 0.25 0
0.55 0.2 0
0.6 0.2 0
0.55 0.25 0
0.6 0.25 0
0.6 0.2 0
0.65 0.2 0
0.6 0.25 0
0.65 0.25 0
0.65 0.2 0
0.7 0.2 0
0.65 0.25 0
0.7 0.25 0
0.7 0.2 0
0.75 0.2 0
0.7 0.25 0
0.75 0.25 0
0.75 0.2 0
0.8 0.2 0
0.75 0.25 0
0.8 0.25 0
0.8 0.2 0
0.85 0.2 0
0.8 0.25 0
0.85 0.25 0
0.85 0.2 0
0.9 0.2 0
0.85 0.25 0
0.9 0.25 0
0.9 0.2 0
0.95 0.2 0
0.9 0.25 0
0.95 0.25 0
0.95 0.2 0
1 0.2 0
0.95 0.25 0
1 0.25 0
1 0.2 0
1.05 0.2 0
1 0.25 0
1.05 0.25 0
1.05 0.2 0
1.1 0.2 0
1.05 0.25 0
1.1 0.25 0
1.1 0.2 0
1.15 0.2 0
1.1 0.25 0
1.15 0.25 0
1.15 0.2 0
1.2 0.2 0
1.15 0.25 0
1.2 0.25 0
1.2 0.2 0
1.25 0.2 0
1.2 0.25 0
1.25 0.25 0
1.25 0.2 0
1.3 0.2 0
1.25 0.25 0
1.3 0.25 0
1.3 0.2 0
1.35 0.2 0
1.3 0.25 0
1.35 0.25 0
1.35 0.2 0
1.4 0.2 0
1.35 0.25 0
1.4 0.25 0
1.4 0.2 0
1.45 0.2 0
1.4 0.25 0
1.45 0.25 0
1.45 0.2 0
1.5 0.2 0
1.45 0.25 0
1.5 0.25 0
1.5 0.2 0
1.55 0.2 0
1.5 0.25 0
1.55 0.25 0
1.55 0.2 0
1.6 0.2 0
1.55 0.25 0
1.6 0.25 0
1.6 0.2 0
1.65 0.2 0
1.6 0.25 0
1.65 0.25 0
1.65 0.2 0
1.7 0.2 0
1.65 0.25 0
1.7 0.25 0
1.7 0.2 0
1.75 0.2 0
1.7 0.25 0
1.75 0.25 0
1.75 0.2 0
1.8 0.2 0
1.75 0.25 0
1.8 0.25 0
1.8 0.2 0
1.85 0.2 0
1.8 0.25 0
1.85 0.25 0
1.85 0.2 0
1.9 0.2 0
1.85 0.25 0
1.9 0.25 0
1.9 0.2 0
1.95 0.2 0
1.9 0.25 0
1.95 0.25 0
1.95 0.2 0
2 0.2 0
1.95 0.25 0
2 0.25 0
0 0.25 0
0.05 0.25 0
0 0.3 0
0.05 0.3 0
0.05 0.25 0
0.1 0.25 0
0.05 0.3 0
0.1 0.3 0
0.1 0.25 0
0.15 0.25 0
0.1 0.3 0
0.15 0.3 0
0.15 0.25 0
0.2 0.25 0
0.15 0.3 0
0.2 0.3 0
0.2 0.25 0
0.25 0.25 0
0.2 0.3 0
0.25 0.3 0
0.25 0.25 0
0.3 0.25 0
0.25 0.3 0
0.3 0.3 0
0.3 0.25 0
0.35 0.25 0
0.3 0.3 0
0.35 0.3 0
0.35 0.25 0
0.4 0.25 0
0.35 0.3 0
0.4 0.3 0
0.4 0.25 0
0.45 0.25 0
0.4 0.3 0
0.45 0.3 0
0.45 0.25 0
0.5 0.25 0
0.45 0.3 0
0.5 0.3 0
0.5 0.25 0
0.55 0.25 0
0.5 0.3 0
0.55 0.3 0
0.55 0.25 0
0.6 0.25 0
0.55 0.3 0
0.6 0.3 0
0.6 0.25 0
0.65 0.25 0
0.6 0.3 0
0.65 0.3 0
0.65 0.25 0
0.7 0.25 0
0.65 0.3 0
0.7 0.3 0
0.7 0.25 0
0.75 0.25 0
0.7 0.3 0
0.75 0.3 0
0.75 0.25 0
0.8 0.25 0
0.75 0.3 0
0.8 0.3 0
0.8 0.25 0
0.85 0.25 0
0.8 0.3 0
0.85 0.3 0
0.85 0.25 0
0.9 0.25 0
0.85 0.3 0
0.9 0.3 0
0.9 0.25 0
0.95 0.25 0
0.9 0.3 0
0.95 0.3 0
0.95 0.25 0
1 0.25 0
0.95 0.3 0
1 0.3 0
1 0.25 0
1.05 0.25 0
1 0.3 0
1.05 0.3 0
1.05 0.25 0
1.1 0.25 0
1.05 0.3 0
1.1 0.3 0
1.1 0.25 0
1.15 0.25 0
1.1 0.3 0
1.15 0.3 0
1.15 0.25 0
1.2 0.25 0
1.15 0.3 0
1.2 0.3 0
1.2 0.25 0
1.25 0.25 0
1.2 0.3 0
1.25 0.3 0
1.25 0.25 0
1.3 0.25 0
1.25 0.3 0
1.3 0.3 0
1.3 0.25 0
1.35 0.25 0
1.3 0.3 0
1.35 0.3 0
1.35 0.25 0
1.4 0.25 0
1.35 0.3 0
1.4 0.3 0
1.4 0.25 0
1.45 0.25 0
1.4 0.3 0
1.45 0.3 0
1.45 0.25 0
1.5 0.25 0
[...]
POINT_DATA 3200
SCALARS density double 1
LOOKUP_TABLE default
1 1 1 1 1 1 1 1 1 1 1 1 1 1 1 1 1 1 1 1 1 1 1 1 1 1 1 1 1 1 1 1 1 1 1 1 1 1 1 1 1 1 1 1 1 1 1 1 1 1 1 1 1 1 1 1 1 1 1 1 1 1 1 1 1 1 1 1 1 1 1 1 1 1 1 1 1 1 1 1 1 1 1 1 1 1 1 1 1 1 1 1 1 1 1 1 0.981482 0.981482 0.981482 0.981482 0.866365 0.866365 0.866365 0.866365 0.60082 0.60082 0.60082 0.60082 0.269681 0.269681 0.269681 0.269681 0.122881 0.122881 0.122881 0.122881 0.0256392 0.0256392 0.0256392 0.0256392 0.00130825 0.00130825 0.00130825 0.00130825 0 0 0 0 0 0 0 0 0 0 0 0 0 0 0 0 0 0 0 0 0 0 0 0 0 0 0 0 0 0 0 0 0 0 0 0 0.834771 0.834771 0.834771 0.834771 0.891242 0.891242 0.891242 0.891242 0.981477 0.981477 0.981477 0.981477 1 1 1 1 1 1 1 1 1 1 1 1 0.992159 0.992159 0.992159 0.992159 0.951557 0.951557 0.951557 0.951557 0.913442 0.913442 0.913442 0.913442 0.88164 0.88164 0.88164 0.88164 0.857767 0.857767 0.857767 0.857767 0.841581 0.841581 0.841581 0.841581 0.832286 0.832286 0.832286 0.832286 0.830753 0.830753 0.830753 0.830753 0.830753 0.830753 0.830753 0.830753 0.83392 0.83392 0.83392 0.83392 0.849552 0.849552 0.849552 0.849552 0.86148 0.86148 0.86148 0.86148 0.872599 0.872599 0.872599 0.872599 0.878115 0.878115 0.878115 0.878115 0.88076 0.88076 0.88076 0.88076 0.887664 0.887664 0.887664 0.887664 0.901013 0.901013 0.901013 0.901013 0.918385 0.918385 0.918385 0.918385 0.93296 0.93296 0.93296 0.93296 0.938183 0.938183 0.938183 0.938183 0.91371 0.91371 0.91371 0.91371 0.822305 0.822305 0.822305 0.822305 0.616486 0.616486 0.616486 0.616486 0.270444 0.270444 0.270444 0.270444 0.111291 0.111291 0.111291 0.111291 0.0177835 0.0177835 0.0177835 0.0177835 0 0 0 0 0 0 0 0 0 0 0 0 0 0 0 0 0 0 0 0 0 0 0 0 0 0 0 0 0 0 0 0 0.207195 0.207195 0.207195 0.207195 0.411601 0.411601 0.411601 0.411601 0.760274 0.760274 0.760274 0.760274 0.908899 0.908899 0.908899 0.908899 0.975869 0.975869 0.975869 0.975869 0.985063 0.985063 0.985063 0.985063 0.929723 0.929723 0.929723 0.929723 0.743643 0.743643 0.743643 0.743643 0.577164 0.577164 0.577164 0.577164 0.42928 0.42928 0.42928 0.42928 0.312454 0.312454 0.312454 0.312454 0.240265 0.240265 0.240265 0.240265 0.214973 0.214973 0.214973 0.214973 0.208358 0.208358 0.208358 0.208358 0.20372 0.20372 0.20372 0.20372 0.218366 0.218366 0.218366 0.218366 0.285328 0.285328 0.285328 0.285328 0.344909 0.344909 0.344909 0.344909 0.396515 0.396515 0.396515 0.396515 0.423614 0.423614 0.423614 0.423614 0.440197 0.440197 0.440197 0.440197 0.470322 0.470322 0.470322 0.470322 0.52191 0.52191 0.52191 0.52191 0.585871 0.585871 0.585871 0.585871 0.646139 0.646139 0.646139 0.646139 0.747581 0.747581 0.747581 0.747581 0.866378 0.866378 0.866378 0.866378 0.921744 0.921744 0.921744 0.921744 0.934364 0.934364 0.934364 0.934364 0.818821 0.818821 0.818821 0.818821 0.577632 0.577632 0.577632 0.577632 0.231673 0.231673 0.231673 0.231673 0.0680764 0.0680764 0.0680764 0.0680764 0.00939403 0.00939403 0.00939403 0.00939403 0 0 0 0 0 0 0 0 0 0 0 0 0 0 0 0 0 0 0 0 0 0 0 0 0.00769132 0.00769132 0.00769132 0.00769132 0.0604888 0.0604888 0.0604888 0.0604888 0.204485 0.204485 0.204485 0.204485 0.48671 0.48671 0.48671 0.48671 0.806462 0.806462 0.806462 0.806462 0.914438 0.914438 0.914438 0.914438 0.84609 0.84609 0.84609 0.84609 0.667912 0.667912 0.667912 0.667912 0.527491 0.527491 0.527491 0.527491 0.385352 0.385352 0.385352 0.385352 0.253876 0.253876 0.253876 0.253876 0.194175 0.194175 0.194175 0.194175 0.210695 0.210695 0.210695 0.210695 0.206898 0.206898 0.206898 0.206898 0.188048 0.188048 0.188048 0.188048 0.194404 0.194404 0.194404 0.194404 0.247496 0.247496 0.247496 0.247496 0.31252 0.31252 0.31252 0.31252 0.364314 0.364314 0.364314 0.364314 0.395163 0.395163 0.395163 0.395163 0.422857 0.422857 0.422857 0.422857 0.444491 0.444491 0.444491 0.444491 0.456236 0.456236 0.456236 0.456236 0.454626 0.454626 0.454626 0.454626 0.425037 0.425037 0.425037 0.425037 0.414131 0.414131 0.414131 0.414131 0.46811 0.46811 0.46811 0.46811 0.613901 0.613901 0.613901 0.613901 0.837709 0.837709 0.837709 0.837709 0.91663 0.91663 0.91663 0.91663 0.923336 0.923336 0.923336 0.923336 0.77358 0.77358 0.77358 0.77358 0.435011 0.435011 0.435011 0.435011 0.16537 0.16537 0.16537 0.16537 0.0218331 0.0218331 0.0218331 0.0218331 0 0 0 0 0 0 0 0 0 0 0 0 0 0 0 0 0 0 0 0 0 0 0 0 0 0 0 0 0.0120643 0.0120643 0.0120643 0.0120643 0.131128 0.131128 0.131128 0.131128 0.455723 0.455723 0.455723 0.455723 0.780538 0.780538 0.780538 0.780538 0.906237 0.906237 0.906237 0.906237 0.848389 0.848389 0.848389 0.848389 0.710143 0.710143 0.710143 0.710143 0.601173 0.601173 0.601173 0.601173 0.489157 0.489157 0.489157 0.489157 0.411066 0.411066 0.411066 0.411066 0.354413 0.354413 0.354413 0.354413 0.320784 0.320784 0.320784 0.320784 0.303542 0.303542 0.303542 0.303542 0.30976 0.30976 0.30976 0.30976 0.335469 0.335469 0.335469 0.335469 0.380842 0.380842 0.380842 0.380842 0.417737 0.417737 0.417737 0.417737 0.450607 0.450607 0.450607 0.450607 0.482604 0.482604 0.482604 0.482604 0.499878 0.499878 0.499878 0.499878 0.492796 0.492796 0.492796 0.492796 0.453764 0.453764 0.453764 0.453764 0.415912 0.415912 0.415912 0.415912 0.381348 0.381348 0.381348 0.381348 0.378548 0.378548 0.378548 0.378548 0.401461 0.401461 0.401461 0.401461 0.456307 0.456307 0.456307 0.456307 0.578421 0.578421 0.578421 0.578421 0.821025 0.821025 0.821025 0.821025 0.915371 0.915371 0.915371 0.915371 0.868584 0.868584 0.868584 0.868584 0.651816 0.651816 0.651816 0.651816 0.249901 0.249901 0.249901 0.249901 0.0688855 0.0688855 0.0688855 0.0688855 0.00957559 0.00957559 0.00957559 0.00957559 0 0 0 0 0 0 0 0 0 0 0 0 0 0 0 0 0 0 0 0 0 0 0 0 0.0118895 0.0118895 0.0118895 0.0118895 0.123755 0.123755 0.123755 0.123755 0.416457 0.416457 0.416457 0.416457 0.708781 0.708781 0.708781 0.708781 0.877559 0.877559 0.877559 0.877559 0.908992 0.908992 0.908992 0.908992 0.865802 0.865802 0.865802 0.865802 0.756358 0.756358 0.756358 0.756358 0.634004 0.634004 0.634004 0.634004 0.518452 0.518452 0.518452 0.518452 0.437411 0.437411 0.437411 0.437411 0.394008 0.394008 0.394008 0.394008 0.390243 0.390243 0.390243 0.390243 0.38691 0.38691 0.38691 0.38691 0.410531 0.410531 0.410531 0.410531 0.444937 0.444937 0.444937 0.444937 0.507365 0.507365 0.507365 0.507365 0.551307 0.551307 0.551307 0.551307 0.555932 0.555932 0.555932 0.555932 0.520836 0.520836 0.520836 0.520836 0.452698 0.452698 0.452698 0.452698 0.414753 0.414753 0.414753 0.414753 0.383244 0.383244 0.383244 0.383244 0.381209 0.381209 0.381209 0.381209 0.390108 0.390108 0.390108 0.390108 0.358078 0.358078 0.358078 0.358078 0.312614 0.312614 0.312614 0.312614 0.398677 0.398677 0.398677 0.398677 0.582158 0.582158 0.582158 0.582158 0.834693 0.834693 0.834693 0.834693 0.934752 0.934752 0.934752 0.934752 0.778439 0.778439 0.778439 0.778439 0.437955 0.437955 0.437955 0.437955 0.166091 0.166091 0.166091 0.166091 0.0218136 0.0218136 0.0218136 0.0218136 0 0 0 0 0 0 0 0 0 0 0 0 0 0 0 0 0 0 0 0 0 0 0 0 0.0105436 0.0105436 0.0105436 0.0105436 0.0695527 0.0695527 0.0695527 0.0695527 0.197814 0.197814 0.197814 0.197814 0.496831 0.496831 0.496831 0.496831 0.764711 0.764711 0.764711 0.764711 0.873211 0.873211 0.873211 0.873211 0.865372 0.865372 0.865372 0.865372 0.810117 0.810117 0.810117 0.810117 0.731822 0.731822 0.731822 0.731822 0.642443 0.642443 0.642443 0.642443 0.559887 0.559887 0.559887 0.559887 0.505604 0.505604 0.505604 0.505604 0.47556 0.47556 0.47556 0.47556 0.471887 0.471887 0.471887 0.471887 0.494292 0.494292 0.494292 0.494292 0.55578 0.55578 0.55578 0.55578 0.561462 0.561462 0.561462 0.561462 0.527368 0.527368 0.527368 0.527368 0.4749 0.4749 0.4749 0.4749 0.423633 0.423633 0.423633 0.423633 0.386967 0.386967 0.386967 0.386967 0.354339 0.354339 0.354339 0.354339 0.34227 0.34227 0.34227 0.34227 0.351664 0.351664 0.351664 0.351664 0.381722 0.381722 0.381722 0.381722 0.375489 0.375489 0.375489 0.375489 0.301402 0.301402 0.301402 0.301402 0.181639 0.181639 0.181639 0.181639 0.384787 0.384787 0.384787 0.384787 0.755316 0.755316 0.755316 0.755316 0.891579 0.891579 0.891579 0.891579 0.865313 0.865313 0.865313 0.865313 0.651678 0.651678 0.651678 0.651678 0.251004 0.251004 0.251004 0.251004 0.0741888 0.0741888 0.0741888 0.0741888 0.0107657 0.0107657 0.0107657 0.0107657 0 0 0 0 0 0 0 0 0 0 0 0 0 0 0 0 0 0 0 0 0 0 0 0 0.0135736 0.0135736 0.0135736 0.0135736 0.127705 0.127705 0.127705 0.127705 0.393248 0.393248 0.393248 0.393248 0.650613 0.650613 0.650613 0.650613 0.776459 0.776459 0.776459 0.776459 0.814904 0.814904 0.814904 0.814904 0.80973 0.80973 0.80973 0.80973 0.771251 0.771251 0.771251 0.771251 0.710293 0.710293 0.710293 0.710293 0.645728 0.645728 0.645728 0.645728 0.597229 0.597229 0.597229 0.597229 0.579818 0.579818 0.579818 0.579818 0.579187 0.579187 0.579187 0.579187 0.525239 0.525239 0.525239 0.525239 0.493831 0.493831 0.493831 0.493831 0.473185 0.473185 0.473185 0.473185 0.46048 0.46048 0.46048 0.46048 0.405876 0.405876 0.405876 0.405876 0.356276 0.356276 0.356276 0.356276 0.311976 0.311976 0.311976 0.311976 0.243855 0.243855 0.243855 0.243855 0.194148 0.194148 0.194148 0.194148 0.195169 0.195169 0.195169 0.195169 0.274534 0.274534 0.274534 0.274534 0.259097 0.259097 0.259097 0.259097 0.0619729 0.0619729 0.0619729 0.0619729 0.0560948 0.0560948 0.0560948 0.0560948 0.200988 0.200988 0.200988 0.200988 0.481956 0.481956 0.481956 0.481956 0.823431 0.823431 0.823431 0.823431 0.936135 0.936135 0.936135 0.936135 0.783723 0.783723 0.783723 0.783723 0.459107 0.459107 0.459107 0.459107 0.205929 0.205929 0.205929 0.205929 0 0 0 0 0 0 0 0 0 0 0 0 0 0 0 0 0 0 0 0 0 0 0 0 0 0 0 0 0.0100677 0.0100677 0.0100677 0.0100677 0.0998663 0.0998663 0.0998663 0.0998663 0.325148 0.325148 0.325148 0.325148 0.556003 0.556003 0.556003 0.556003 0.681238 0.681238 0.681238 0.681238 0.746947 0.746947 0.746947 0.746947 0.773422 0.773422 0.773422 0.773422 0.767553 0.767553 0.767553 0.767553 0.737973 0.737973 0.737973 0.737973 0.698186 0.698186 0.698186 0.698186 0.660154 0.660154 0.660154 0.660154 0.613257 0.613257 0.613257 0.613257 0.52225 0.52225 0.52225 0.52225 0.478355 0.478355 0.478355 0.478355 0.450285 0.450285 0.450285 0.450285 0.420208 0.420208 0.420208 0.420208 0.376174 0.376174 0.376174 0.376174 0.32913 0.32913 0.32913 0.32913 0.241501 0.241501 0.241501 0.241501 0.0924304 0.0924304 0.0924304 0.0924304 0.0356788 0.0356788 0.0356788 0.0356788 0.0296117 0.0296117 0.0296117 0.0296117 0.0517313 0.0517313 0.0517313 0.0517313 0.0547737 0.0547737 0.0547737 0.0547737 0.0103916 0.0103916 0.0103916 0.0103916 0 0 0 0 0.0115009 0.0115009 0.0115009 0.0115009 0.113897 0.113897 0.113897 0.113897 0.407943 0.407943 0.407943 0.407943 0.782894 0.782894 0.782894 0.782894 0.927007 0.927007 0.927007 0.927007 0.885287 0.885287 0.885287 0.885287 0.78303 0.78303 0.78303 0.78303 0 0 0 0 0 0 0 0 0 0 0 0 0 0 0 0 0 0 0 0 0 0 0 0 0 0 0 0 0 0 0 0 0.0122581 0.0122581 0.0122581 0.0122581 0.12213 0.12213 0.12213 0.12213 0.381936 0.381936 0.381936 0.381936 0.545667 0.545667 0.545667 0.545667 0.656025 0.656025 0.656025 0.656025 0.728411 0.728411 0.728411 0.728411 0.767927 0.767927 0.767927 0.767927 0.776397 0.776397 0.776397 0.776397 0.751406 0.751406 0.751406 0.751406 0.692103 0.692103 0.692103 0.692103 0.621634 0.621634 0.621634 0.621634 0.564404 0.564404 0.564404 0.564404 0.482356 0.482356 0.482356 0.482356 0.434587 0.434587 0.434587 0.434587 0.397749 0.397749 0.397749 0.397749 0.369483 0.369483 0.369483 0.369483 0.327469 0.327469 0.327469 0.327469 0.224067 0.224067 0.224067 0.224067 0.0883868 0.0883868 0.0883868 0.0883868 0.0129419 0.0129419 0.0129419 0.0129419 0 0 0 0 0 0 0 0 0 0 0 0 0 0 0 0 0 0 0 0 0 0 0 0 0.00817549 0.00817549 0.00817549 0.00817549 0.0798495 0.0798495 0.0798495 0.0798495 0.317532 0.317532 0.317532 0.317532 0.713389 0.713389 0.713389 0.713389 0.955105 0.955105 0.955105 0.955105 0.985034 0.985034 0.985034 0.985034 0 0 0 0 0 0 0 0 0 0 0 0 0 0 0 0 0 0 0 0 0 0 0 0 0 0 0 0 0 0 0 0 0.0122581 0.0122581 0.0122581 0.0122581 0.12213 0.12213 0.12213 0.12213 0.381936 0.381936 0.381936 0.381936 0.545667 0.545667 0.545667 0.545667 0.656025 0.656025 0.656025 0.656025 0.728411 0.728411 0.728411 0.728411 0.767927 0.767927 0.767927 0.767927 0.776397 0.776397 0.776397 0.776397 0.751406 0.751406 0.751406 0.751406 0.692103 0.692103 0.692103 0.692103 0.621634 0.621634 0.621634 0.621634 0.564404 0.564404 0.564404 0.564404 0.482356 0.482356 0.482356 0.482356 0.434587 0.434587 0.434587 0.434587 0.397749 0.397749 0.397749 0.397749 0.369483 0.369483 0.369483 0.369483 0.327469 0.327469 0.327469 0.327469 0.224067 0.224067 0.224067 0.224067 0.0883868 0.0883868 0.0883868 0.0883868 0.0129419 0.0129419 0.0129419 0.0129419 0 0 0 0 0 0 0 0 0 0 0 0 0 0 0 0 0 0 0 0 0 0 0 0 0.00817549 0.00817549 0.00817549 0.00817549 0.0798495 0.0798495 0.0798495 0.0798495 0.317532 0.317532 0.317532 0.317532 0.713389 0.713389 0.713389 0.713389 0.955105 0.955105 0.955105 0.955105 0.985034 0.985034 0.985034 0.985034 0 0 0 0 0 0 0 0 0 0 0 0 0 0 0 0 0 0 0 0 0 0 0 0 0 0 0 0 0.0100677 0.0100677 0.0100677 0.0100677 0.0998663 0.0998663 0.0998663 0.0998663 0.325148 0.325148 0.325148 0.325148 0.556003 0.556003 0.556003 0.556003 0.681238 0.681238 0.681238 0.681238 0.746947 0.746947 0.746947 0.746947 0.773422 0.773422 0.773422 0.773422 0.767553 0.767553 0.767553 0.767553 0.737973 0.737973 0.737973 0.737973 0.698186 0.698186 0.698186 0.698186 0.660154 0.660154 0.660154 0.660154 0.613257 0.613257 0.613257 0.613257 0.52225 0.52225 0.52225 0.52225 0.478355 0.478355 0.478355 0.478355 0.450285 0.450285 0.450285 0.450285 0.420208 0.420208 0.420208 0.420208 0.376174 0.376174 0.376174 0.376174 0.32913 0.32913 0.32913 0.32913 0.241501 0.241501 0.241501 0.241501 0.0924304 0.0924304 0.0924304 0.0924304 0.0356788 0.0356788 0.0356788 0.0356788 0.0296117 0.0296117 0.0296117 0.0296117 0.0517313 0.0517313 0.0517313 0.0517313 0.0547737 0.0547737 0.0547737 0.0547737 0.0103916 0.0103916 0.0103916 0.0103916 0 0 0 0 0.0115009 0.0115009 0.0115009 0.0115009 0.113897 0.113897 0.113897 0.113897 0.407943 0.407943 0.407943 0.407943 0.782894 0.782894 0.782894 0.782894 0.927007 0.927007 0.927007 0.927007 0.885287 0.885287 0.885287 0.885287 0.78303 0.78303 0.78303 0.78303 0 0 0 0 0 0 0 0 0 0 0 0 0 0 0 0 0 0 0 0 0 0 0 0 0.0135736 0.0135736 0.0135736 0.0135736 0.127705 0.127705 0.127705 0.127705 0.393248 0.393248 0.393248 0.393248 0.650613 0.650613 0.650613 0.650613 0.776459 0.776459 0.776459 0.776459 0.814904 0.814904 0.814904 0.814904 0.80973 0.80973 0.80973 0.80973 0.771251 0.771251 0.771251 0.771251 0.710293 0.710293 0.710293 0.710293 0.645728 0.645728 0.645728 0.645728 0.597229 0.597229 0.597229 0.597229 0.579818 0.579818 0.579818 0.579818 0.579187 0.579187 0.579187 0.579187 0.525239 0.525239 0.525239 0.525239 0.493831 0.493831 0.493831 0.493831 0.473185 0.473185 0.473185 0.473185 0.46048 0.46048 0.46048 0.46048 0.405876 0.405876 0.405876 0.405876 0.356276 0.356276 0.356276 0.356276 0.311976 0.311976 0.311976 0.311976 0.243855 0.243855 0.243855 0.243855 0.194148 0.194148 0.194148 0.194148 0.195169 0.195169 0.195169 0.195169 0.274534 0.274534 0.274534 0.274534 0.259097 0.259097 0.259097 0.259097 0.0619729 0.0619729 0.0619729 0.0619729 0.0560948 0.0560948 0.0560948 0.0560948 0.200988 0.200988 0.200988 0.200988 0.481956 0.481956 0.481956 0.481956 0.823431 0.823431 0.823431 0.823431 0.936135 0.936135 0.936135 0.936135 0.783723 0.783723 0.783723 0.783723 0.459107 0.459107 0.459107 0.459107 0.205929 0.205929 0.205929 0.205929 0 0 0 0 0 0 0 0 0 0 0 0 0 0 0 0 0.0105436 0.0105436 0.0105436 0.0105436 0.0695527 0.0695527 0.0695527 0.0695527 0.197814 0.197814 0.197814 0.197814 0.496831 0.496831 0.496831 0.496831 0.764711 0.764711 0.764711 0.764711 0.873211 0.873211 0.873211 0.873211 0.865372 0.865372 0.865372 0.865372 0.810117 0.810117 0.810117 0.810117 0.731822 0.731822 0.731822 0.731822 0.642443 0.642443 0.642443 0.642443 0.559887 0.559887 0.559887 0.559887 0.505604 0.505604 0.505604 0.505604 0.47556 0.47556 0.47556 0.47556 0.471887 0.471887 0.471887 0.471887 0.494292 0.494292 0.494292 0.494292 0.55578 0.55578 0.55578 0.55578 0.561462 0.561462 0.561462 0.561462 0.527368 0.527368 0.527368 0.527368 0.4749 0.4749 0.4749 0.4749 0.423633 0.423633 0.423633 0.423633 0.386967 0.386967 0.386967 0.386967 0.354339 0.354339 0.354339 0.354339 0.34227 0.34227 0.34227 0.34227 0.351664 0.351664 0.351664 0.351664 0.381722 0.381722 0.381722 0.381722 0.375489 0.375489 0.375489 0.375489 0.301402 0.301402 0.301402 0.301402 0.181639 0.181639 0.181639 0.181639 0.384787 0.384787 0.384787 0.384787 0.755316 0.755316 0.755316 0.755316 0.891579 0.891579 0.891579 0.891579 0.865313 0.865313 0.865313 0.865313 0.651678 0.651678 0.651678 0.651678 0.251004 0.251004 0.251004 0.251004 0.0741888 0.0741888 0.0741888 0.0741888 0.0107657 0.0107657 0.0107657 0.0107657 0 0 0 0 0 0 0 0 0 0 0 0 0.0118895 0.0118895 0.0118895 0.0118895 0.123755 0.123755 0.123755 0.123755 0.416457 0.416457 0.416457 0.416457 0.708781 0.708781 0.708781 0.708781 0.877559 0.877559 0.877559 0.877559 0.908992 0.908992 0.908992 0.908992 0.865802 0.865802 0.865802 0.865802 0.756358 0.756358 0.756358 0.756358 0.634004 0.634004 0.634004 0.634004 0.518452 0.518452 0.518452 0.518452 0.437411 0.437411 0.437411 0.437411 0.394008 0.394008 0.394008 0.394008 0.390243 0.390243 0.390243 0.390243 0.38691 0.38691 0.38691 0.38691 0.410531 0.410531 0.410531 0.410531 0.444937 0.444937 0.444937 0.444937 0.507365 0.507365 0.507365 0.507365 0.551307 0.551307 0.551307 0.551307 0.555932 0.555932 0.555932 0.555932 0.520836 0.520836 0.520836 0.520836 0.452698 0.452698 0.452698 0.452698 0.414753 0.414753 0.414753 0.414753 0.383244 0.383244 0.383244 0.383244 0.381209 0.381209 0.381209 0.381209 0.390108 0.390108 0.390108 0.390108 0.358078 0.358078 0.358078 0.358078 0.312614 0.312614 0.312614 0.312614 0.398677 0.398677 0.398677 0.398677 0.582158 0.582158 0.582158 0.582158 0.834693 0.834693 0.834693 0.834693 0.934752 0.934752 0.934752 0.934752 0.778439 0.778439 0.778439 0.778439 0.437955 0.437955 0.437955 0.437955 0.166091 0.166091 0.166091 0.166091 0.0218136 0.0218136 0.0218136 0.0218136 0 0 0 0 0 0 0 0 0 0 0 0 0 0 0 0 0.0120643 0.0120643 0.0120643 0.0120643 0.131128 0.131128 0.131128 0.131128 0.455723 0.455723 0.455723 0.455723 0.780538 0.780538 0.780538 0.780538 0.906237 0.906237 0.906237 0.906237 0.848389 0.848389 0.848389 0.848389 0.710143 0.710143 0.710143 0.710143 0.601173 0.601173 0.601173 0.601173 0.489157 0.489157 0.489157 0.489157 0.411066 0.411066 0.411066 0.411066 0.354413 0.354413 0.354413 0.354413 0.320784 0.320784 0.320784 0.320784 0.303542 0.303542 0.303542 0.303542 0.30976 0.30976 0.30976 0.30976 0.335469 0.335469 0.335469 0.335469 0.380842 0.380842 0.380842 0.380842 0.417737 0.417737 0.417737 0.417737 0.450607 0.450607 0.450607 0.450607 0.482604 0.482604 0.482604 0.482604 0.499878 0.499878 0.499878 0.499878 0.492796 0.492796 0.492796 0.492796 0.453764 0.453764 0.453764 0.453764 0.415912 0.415912 0.415912 0.415912 0.381348 0.381348 0.381348 0.381348 0.378548 0.378548 0.378548 0.378548 0.401461 0.401461 0.401461 0.401461 0.456307 0.456307 0.456307 0.456307 0.578421 0.578421 0.578421 0.578421 0.821025 0.821025 0.821025 0.821025 0.915371 0.915371 0.915371 0.915371 0.868584 0.868584 0.868584 0.868584 0.651816 0.651816 0.651816 0.651816 0.249901 0.249901 0.249901 0.249901 0.0688855 0.0688855 0.0688855 0.0688855 0.00957559 0.00957559 0.00957559 0.00957559 0 0 0 0 0 0 0 0 0 0 0 0 0.00769132 0.00769132 0.00769132 0.00769132 0.0604888 0.0604888 0.0604888 0.0604888 0.204485 0.204485 0.204485 0.204485 0.48671 0.48671 0.48671 0.48671 0.806462 0.806462 0.806462 0.806462 0.914438 0.914438 0.914438 0.914438 0.84609 0.84609 0.84609 0.84609 0.667912 0.667912 0.667912 0.667912 0.527491 0.527491 0.527491 0.527491 0.385352 0.385352 0.385352 0.385352 0.253876 0.253876 0.253876 0.253876 0.194175 0.194175 0.194175 0.194175 0.210695 0.210695 0.210695 0.210695 0.206898 0.206898 0.206898 0.206898 0.188048 0.188048 0.188048 0.188048 0.194404 0.194404 0.194404 0.194404 0.247496 0.247496 0.247496 0.247496 0.31252 0.31252 0.31252 0.31252 0.364314 0.364314 0.364314 0.364314 0.395163 0