# vtk DataFile Version 3.0
#This file was generated by the deal.II library on 2016/3/9 at 8:36:05
ASCII
DATASET UNSTRUCTURED_GRID

POINTS 2048 double
0 0 0
0.0625 0 0
0 0.0625 0
0.0625 0.0625 0
0.0625 0 0
0.125 0 0
0.0625 0.0625 0
0.125 0.0625 0
0 0.0625 0
0.0625 0.0625 0
0 0.125 0
0.0625 0.125 0
0.0625 0.0625 0
0.125 0.0625 0
0.0625 0.125 0
0.125 0.125 0
0.125 0 0
0.1875 0 0
0.125 0.0625 0
0.1875 0.0625 0
0.1875 0 0
0.25 0 0
0.1875 0.0625 0
0.25 0.0625 0
0.125 0.0625 0
0.1875 0.0625 0
0.125 0.125 0
0.1875 0.125 0
0.1875 0.0625 0
0.25 0.0625 0
0.1875 0.125 0
0.25 0.125 0
0 0.125 0
0.0625 0.125 0
0 0.1875 0
0.0625 0.1875 0
0.0625 0.125 0
0.125 0.125 0
0.0625 0.1875 0
0.125 0.1875 0
0 0.1875 0
0.0625 0.1875 0
0 0.25 0
0.0625 0.25 0
0.0625 0.1875 0
0.125 0.1875 0
0.0625 0.25 0
0.125 0.25 0
0.125 0.125 0
0.1875 0.125 0
0.125 0.1875 0
0.1875 0.1875 0
0.1875 0.125 0
0.25 0.125 0
0.1875 0.1875 0
0.25 0.1875 0
0.125 0.1875 0
0.1875 0.1875 0
0.125 0.25 0
0.1875 0.25 0
0.1875 0.1875 0
0.25 0.1875 0
0.1875 0.25 0
0.25 0.25 0
0.25 0 0
0.3125 0 0
0.25 0.0625 0
0.3125 0.0625 0
0.3125 0 0
0.375 0 0
0.3125 0.0625 0
0.375 0.0625 0
0.25 0.0625 0
0.3125 0.0625 0
0.25 0.125 0
0.3125 0.125 0
0.3125 0.0625 0
0.375 0.0625 0
0.3125 0.125 0
0.375 0.125 0
0.375 0 0
0.4375 0 0
0.375 0.0625 0
0.4375 0.0625 0
0.4375 0 0
0.5 0 0
0.4375 0.0625 0
0.5 0.0625 0
0.375 0.0625 0
0.4375 0.0625 0
0.375 0.125 0
0.4375 0.125 0
0.4375 0.0625 0
0.5 0.0625 0
0.4375 0.125 0
0.5 0.125 0
0.25 0.125 0
0.3125 0.125 0
0.25 0.1875 0
0.3125 0.1875 0
0.3125 0.125 0
0.375 0.125 0
0.3125 0.1875 0
0.375 0.1875 0
0.25 0.1875 0
0.3125 0.1875 0
0.25 0.25 0
0.3125 0.25 0
0.3125 0.1875 0
0.375 0.1875 0
0.3125 0.25 0
0.375 0.25 0
0.375 0.125 0
0.4375 0.125 0
0.375 0.1875 0
0.4375 0.1875 0
0.4375 0.125 0
0.5 0.125 0
0.4375 0.1875 0
0.5 0.1875 0
0.375 0.1875 0
0.4375 0.1875 0
0.375 0.25 0
0.4375 0.25 0
0.4375 0.1875 0
0.5 0.1875 0
0.4375 0.25 0
0.5 0.25 0
0 0.25 0
0.0625 0.25 0
0 0.3125 0
0.0625 0.3125 0
0.0625 0.25 0
0.125 0.25 0
0.0625 0.3125 0
0.125 0.3125 0
0 0.3125 0
0.0625 0.3125 0
0 0.375 0
0.0625 0.375 0
0.0625 0.3125 0
0.125 0.3125 0
0.0625 0.375 0
0.125 0.375 0
0.125 0.25 0
0.1875 0.25 0
0.125 0.3125 0
0.1875 0.3125 0
0.1875 0.25 0
0.25 0.25 0
0.1875 0.3125 0
0.25 0.3125 0
0.125 0.3125 0
0.1875 0.3125 0
0.125 0.375 0
0.1875 0.375 0
0.1875 0.3125 0
0.25 0.3125 0
0.1875 0.375 0
0.25 0.375 0
0 0.375 0
0.0625 0.375 0
0 0.4375 0
0.0625 0.4375 0
0.0625 0.375 0
0.125 0.375 0
0.0625 0.4375 0
0.125 0.4375 0
0 0.4375 0
0.0625 0.4375 0
0 0.5 0
0.0625 0.5 0
0.0625 0.4375 0
0.125 0.4375 0
0.0625 0.5 0
0.125 0.5 0
0.125 0.375 0
0.1875 0.375 0
0.125 0.4375 0
0.1875 0.4375 0
0.1875 0.375 0
0.25 0.375 0
0.1875 0.4375 0
0.25 0.4375 0
0.125 0.4375 0
0.1875 0.4375 0
0.125 0.5 0
0.1875 0.5 0
0.1875 0.4375 0
0.25 0.4375 0
0.1875 0.5 0
0.25 0.5 0
0.25 0.25 0
0.3125 0.25 0
0.25 0.3125 0
0.3125 0.3125 0
0.3125 0.25 0
0.375 0.25 0
0.3125 0.3125 0
0.375 0.3125 0
0.25 0.3125 0
0.3125 0.3125 0
0.25 0.375 0
0.3125 0.375 0
0.3125 0.3125 0
0.375 0.3125 0
0.3125 0.375 0
0.375 0.375 0
0.375 0.25 0
0.4375 0.25 0
0.375 0.3125 0
0.4375 0.3125 0
0.4375 0.25 0
0.5 0.25 0
0.4375 0.3125 0
0.5 0.3125 0
0.375 0.3125 0
0.4375 0.3125 0
0.375 0.375 0
0.4375 0.375 0
0.4375 0.3125 0
0.5 0.3125 0
0.4375 0.375 0
0.5 0.375 0
0.25 0.375 0
0.3125 0.375 0
0.25 0.4375 0
0.3125 0.4375 0
0.3125 0.375 0
0.375 0.375 0
0.3125 0.4375 0
0.375 0.4375 0
0.25 0.4375 0
0.3125 0.4375 0
0.25 0.5 0
0.3125 0.5 0
0.3125 0.4375 0
0.375 0.4375 0
0.3125 0.5 0
0.375 0.5 0
0.375 0.375 0
0.4375 0.375 0
0.375 0.4375 0
0.4375 0.4375 0
0.4375 0.375 0
0.5 0.375 0
0.4375 0.4375 0
0.5 0.4375 0
0.375 0.4375 0
0.4375 0.4375 0
0.375 0.5 0
0.4375 0.5 0
0.4375 0.4375 0
0.5 0.4375 0
0.4375 0.5 0
0.5 0.5 0
0.5 0 0
0.5625 0 0
0.5 0.0625 0
0.5625 0.0625 0
0.5625 0 0
0.625 0 0
0.5625 0.0625 0
0.625 0.0625 0
0.5 0.0625 0
0.5625 0.0625 0
0.5 0.125 0
0.5625 0.125 0
0.5625 0.0625 0
0.625 0.0625 0
0.5625 0.125 0
0.625 0.125 0
0.625 0 0
0.6875 0 0
0.625 0.0625 0
0.6875 0.0625 0
0.6875 0 0
0.75 0 0
0.6875 0.0625 0
0.75 0.0625 0
0.625 0.0625 0
0.6875 0.0625 0
0.625 0.125 0
0.6875 0.125 0
0.6875 0.0625 0
0.75 0.0625 0
0.6875 0.125 0
0.75 0.125 0
0.5 0.125 0
0.5625 0.125 0
0.5 0.1875 0
0.5625 0.1875 0
0.5625 0.125 0
0.625 0.125 0
0.5625 0.1875 0
0.625 0.1875 0
0.5 0.1875 0
0.5625 0.1875 0
0.5 0.25 0
0.5625 0.25 0
0.5625 0.1875 0
0.625 0.1875 0
0.5625 0.25 0
0.625 0.25 0
0.625 0.125 0
0.6875 0.125 0
0.625 0.1875 0
0.6875 0.1875 0
0.6875 0.125 0
0.75 0.125 0
0.6875 0.1875 0
0.75 0.1875 0
0.625 0.1875 0
0.6875 0.1875 0
0.625 0.25 0
0.6875 0.25 0
0.6875 0.1875 0
0.75 0.1875 0
0.6875 0.25 0
0.75 0.25 0
0.75 0 0
0.8125 0 0
0.75 0.0625 0
0.8125 0.0625 0
0.8125 0 0
0.875 0 0
0.8125 0.0625 0
0.875 0.0625 0
0.75 0.0625 0
0.8125 0.0625 0
0.75 0.125 0
0.8125 0.125 0
0.8125 0.0625 0
0.875 0.0625 0
0.8125 0.125 0
0.875 0.125 0
0.875 0 0
0.9375 0 0
0.875 0.0625 0
0.9375 0.0625 0
0.9375 0 0
1 0 0
0.9375 0.0625 0
1 0.0625 0
0.875 0.0625 0
0.9375 0.0625 0
0.875 0.125 0
0.9375 0.125 0
0.9375 0.0625 0
1 0.0625 0
0.9375 0.125 0
1 0.125 0
0.75 0.125 0
0.8125 0.125 0
0.75 0.1875 0
0.8125 0.1875 0
0.8125 0.125 0
0.875 0.125 0
0.8125 0.1875 0
0.875 0.1875 0
0.75 0.1875 0
0.8125 0.1875 0
0.75 0.25 0
0.8125 0.25 0
0.8125 0.1875 0
0.875 0.1875 0
0.8125 0.25 0
0.875 0.25 0
0.875 0.125 0
0.9375 0.125 0
0.875 0.1875 0
0.9375 0.1875 0
0.9375 0.125 0
1 0.125 0
0.9375 0.1875 0
1 0.1875 0
0.875 0.1875 0
0.9375 0.1875 0
0.875 0.25 0
0.9375 0.25 0
0.9375 0.1875 0
1 0.1875 0
0.9375 0.25 0
1 0.25 0
0.5 0.25 0
0.5625 0.25 0
0.5 0.3125 0
0.5625 0.3125 0
0.5625 0.25 0
0.625 0.25 0
0.5625 0.3125 0
0.625 0.3125 0
0.5 0.3125 0
0.5625 0.3125 0
0.5 0.375 0
0.5625 0.375 0
0.5625 0.3125 0
0.625 0.3125 0
0.5625 0.375 0
0.625 0.375 0
0.625 0.25 0
0.6875 0.25 0
0.625 0.3125 0
0.6875 0.3125 0
0.6875 0.25 0
0.75 0.25 0
0.6875 0.3125 0
0.75 0.3125 0
0.625 0.3125 0
0.6875 0.3125 0
0.625 0.375 0
0.6875 0.375 0
0.6875 0.3125 0
0.75 0.3125 0
0.6875 0.375 0
0.75 0.375 0
0.5 0.375 0
0.5625 0.375 0
0.5 0.4375 0
0.5625 0.4375 0
0.5625 0.375 0
0.625 0.375 0
0.5625 0.4375 0
0.625 0.4375 0
0.5 0.4375 0
0.5625 0.4375 0
0.5 0.5 0
0.5625 0.5 0
0.5625 0.4375 0
0.625 0.4375 0
0.5625 0.5 0
0.625 0.5 0
0.625 0.375 0
0.6875 0.375 0
0.625 0.4375 0
0.6875 0.4375 0
0.6875 0.375 0
0.75 0.375 0
0.6875 0.4375 0
0.75 0.4375 0
0.625 0.4375 0
0.6875 0.4375 0
0.625 0.5 0
0.6875 0.5 0
0.6875 0.4375 0
0.75 0.4375 0
0.6875 0.5 0
0.75 0.5 0
0.75 0.25 0
0.8125 0.25 0
0.75 0.3125 0
0.8125 0.3125 0
0.8125 0.25 0
0.875 0.25 0
0.8125 0.3125 0
0.875 0.3125 0
0.75 0.3125 0
0.8125 0.3125 0
0.75 0.375 0
0.8125 0.375 0
0.8125 0.3125 0
0.875 0.3125 0
0.8125 0.375 0
0.875 0.375 0
0.875 0.25 0
0.9375 0.25 0
0.875 0.3125 0
0.9375 0.3125 0
0.9375 0.25 0
1 0.25 0
0.9375 0.3125 0
1 0.3125 0
0.875 0.3125 0
0.9375 0.3125 0
0.875 0.375 0
0.9375 0.375 0
0.9375 0.3125 0
1 0.3125 0
0.9375 0.375 0
1 0.375 0
0.75 0.375 0
0.8125 0.375 0
0.75 0.4375 0
0.8125 0.4375 0
0.8125 0.375 0
0.875 0.375 0
0.8125 0.4375 0
0.875 0.4375 0
0.75 0.4375 0
0.8125 0.4375 0
0.75 0.5 0
0.8125 0.5 0
0.8125 0.4375 0
0.875 0.4375 0
0.8125 0.5 0
0.875 0.5 0
0.875 0.375 0
0.9375 0.375 0
0.875 0.4375 0
0.9375 0.4375 0
0.9375 0.375 0
1 0.375 0
0.9375 0.4375 0
1 0.4375 0
0.875 0.4375 0
0.9375 0.4375 0
0.875 0.5 0
0.9375 0.5 0
0.9375 0.4375 0
1 0.4375 0
0.9375 0.5 0
1 0.5 0
1 0 0
1.0625 0 0
1 0.0625 0
1.0625 0.0625 0
1.0625 0 0
1.125 0 0
1.0625 0.0625 0
1.125 0.0625 0
1 0.0625 0
1.0625 0.0625 0
1 0.125 0
1.0625 0.125 0
1.0625 0.0625 0
1.125 0.0625 0
1.0625 0.125 0
1.125 0.125 0
1.125 0 0
1.1875 0 0
1.125 0.0625 0
1.1875 0.0625 0
1.1875 0 0
1.25 0 0
1.1875 0.0625 0
1.25 0.0625 0
1.125 0.0625 0
1.1875 0.0625 0
1.125 0.125 0
1.1875 0.125 0
1.1875 0.0625 0
1.25 0.0625 0
1.1875 0.125 0
1.25 0.125 0
1 0.125 0
1.0625 0.125 0
1 0.1875 0
1.0625 0.1875 0
1.0625 0.125 0
1.125 0.125 0
1.0625 0.1875 0
1.125 0.1875 0
1 0.1875 0
1.0625 0.1875 0
1 0.25 0
1.0625 0.25 0
1.0625 0.1875 0
1.125 0.1875 0
1.0625 0.25 0
1.125 0.25 0
1.125 0.125 0
1.1875 0.125 0
1.125 0.1875 0
1.1875 0.1875 0
1.1875 0.125 0
1.25 0.125 0
1.1875 0.1875 0
1.25 0.1875 0
1.125 0.1875 0
1.1875 0.1875 0
1.125 0.25 0
1.1875 0.25 0
1.1875 0.1875 0
1.25 0.1875 0
1.1875 0.25 0
1.25 0.25 0
1.25 0 0
1.3125 0 0
1.25 0.0625 0
1.3125 0.0625 0
1.3125 0 0
1.375 0 0
1.3125 0.0625 0
1.375 0.0625 0
1.25 0.0625 0
1.3125 0.0625 0
1.25 0.125 0
1.3125 0.125 0
1.3125 0.0625 0
1.375 0.0625 0
1.3125 0.125 0
1.375 0.125 0
1.375 0 0
1.4375 0 0
1.375 0.0625 0
1.4375 0.0625 0
1.4375 0 0
1.5 0 0
1.4375 0.0625 0
1.5 0.0625 0
1.375 0.0625 0
1.4375 0.0625 0
1.375 0.125 0
1.4375 0.125 0
1.4375 0.0625 0
1.5 0.0625 0
1.4375 0.125 0
1.5 0.125 0
1.25 0.125 0
1.3125 0.125 0
1.25 0.1875 0
1.3125 0.1875 0
1.3125 0.125 0
1.375 0.125 0
1.3125 0.1875 0
1.375 0.1875 0
1.25 0.1875 0
1.3125 0.1875 0
1.25 0.25 0
1.3125 0.25 0
1.3125 0.1875 0
1.375 0.1875 0
1.3125 0.25 0
1.375 0.25 0
1.375 0.125 0
1.4375 0.125 0
1.375 0.1875 0
1.4375 0.1875 0
1.4375 0.125 0
1.5 0.125 0
1.4375 0.1875 0
1.5 0.1875 0
1.375 0.1875 0
1.4375 0.1875 0
1.375 0.25 0
1.4375 0.25 0
1.4375 0.1875 0
1.5 0.1875 0
1.4375 0.25 0
1.5 0.25 0
1 0.25 0
1.0625 0.25 0
1 0.3125 0
1.0625 0.3125 0
1.0625 0.25 0
1.125 0.25 0
1.0625 0.3125 0
1.125 0.3125 0
1 0.3125 0
1.0625 0.3125 0
1 0.375 0
1.0625 0.375 0
1.0625 0.3125 0
1.125 0.3125 0
1.0625 0.375 0
1.125 0.375 0
1.125 0.25 0
1.1875 0.25 0
1.125 0.3125 0
1.1875 0.3125 0
1.1875 0.25 0
1.25 0.25 0
1.1875 0.3125 0
1.25 0.3125 0
1.125 0.3125 0
1.1875 0.3125 0
1.125 0.375 0
1.1875 0.375 0
1.1875 0.3125 0
1.25 0.3125 0
1.1875 0.375 0
1.25 0.375 0
1 0.375 0
1.0625 0.375 0
1 0.4375 0
1.0625 0.4375 0
1.0625 0.375 0
1.125 0.375 0
1.0625 0.4375 0
1.125 0.4375 0
1 0.4375 0
1.0625 0.4375 0
1 0.5 0
1.0625 0.5 0
1.0625 0.4375 0
1.125 0.4375 0
1.0625 0.5 0
1.125 0.5 0
1.125 0.375 0
1.1875 0.375 0
1.125 0.4375 0
1.1875 0.4375 0
1.1875 0.375 0
1.25 0.375 0
1.1875 0.4375 0
1.25 0.4375 0
1.125 0.4375 0
1.1875 0.4375 0
1.125 0.5 0
1.1875 0.5 0
1.1875 0.4375 0
1.25 0.4375 0
1.1875 0.5 0
1.25 0.5 0
[...]
POINT_DATA 2048
SCALARS density double 1
LOOKUP_TABLE default
0.998239 0.998239 0.998239 0.998239 0.998727 0.998727 0.998727 0.998727 0.900369 0.900369 0.900369 0.900369 0.899382 0.899382 0.899382 0.899382 0.998849 0.998849 0.998849 0.998849 0.998851 0.998851 0.998851 0.998851 0.904589 0.904589 0.904589 0.904589 0.908773 0.908773 0.908773 0.908773 0.664975 0.664975 0.664975 0.664975 0.663414 0.663414 0.663414 0.663414 0.334697 0.334697 0.334697 0.334697 0.336348 0.336348 0.336348 0.336348 0.665918 0.665918 0.665918 0.665918 0.689408 0.689408 0.689408 0.689408 0.334738 0.334738 0.334738 0.334738 0.368247 0.368247 0.368247 0.368247 0.998851 0.998851 0.998851 0.998851 1 1 1 1 0.933646 0.933646 0.933646 0.933646 0.970125 0.970125 0.970125 0.970125 0.994814 0.994814 0.994814 0.994814 0.965006 0.965006 0.965006 0.965006 0.966306 0.966306 0.966306 0.966306 0.895937 0.895937 0.895937 0.895937 0.751963 0.751963 0.751963 0.751963 0.845287 0.845287 0.845287 0.845287 0.460899 0.460899 0.460899 0.460899 0.617224 0.617224 0.617224 0.617224 0.878764 0.878764 0.878764 0.878764 0.810788 0.810788 0.810788 0.810788 0.73303 0.73303 0.73303 0.73303 0.73434 0.73434 0.73434 0.73434 0.0923482 0.0923482 0.0923482 0.0923482 0.0932512 0.0932512 0.0932512 0.0932512 0.0013242 0.0013242 0.0013242 0.0013242 0.000954103 0.000954103 0.000954103 0.000954103 0.0889437 0.0889437 0.0889437 0.0889437 0.112592 0.112592 0.112592 0.112592 0.000868136 0.000868136 0.000868136 0.000868136 0.00478332 0.00478332 0.00478332 0.00478332 1.05316e-08 1.05316e-08 1.05316e-08 1.05316e-08 1.10097e-08 1.10097e-08 1.10097e-08 1.10097e-08 1.95885e-09 1.95885e-09 1.95885e-09 1.95885e-09 2.00192e-09 2.00192e-09 2.00192e-09 2.00192e-09 1.46064e-08 1.46064e-08 1.46064e-08 1.46064e-08 3.69563e-08 3.69563e-08 3.69563e-08 3.69563e-08 3.4496e-09 3.4496e-09 3.4496e-09 3.4496e-09 1.00529e-08 1.00529e-08 1.00529e-08 1.00529e-08 0.194053 0.194053 0.194053 0.194053 0.356913 0.356913 0.356913 0.356913 0.0432838 0.0432838 0.0432838 0.0432838 0.157054 0.157054 0.157054 0.157054 0.549389 0.549389 0.549389 0.549389 0.666376 0.666376 0.666376 0.666376 0.346971 0.346971 0.346971 0.346971 0.550602 0.550602 0.550602 0.550602 0.0024406 0.0024406 0.0024406 0.0024406 0.0432047 0.0432047 0.0432047 0.0432047 5.47934e-08 5.47934e-08 5.47934e-08 5.47934e-08 0.00391609 0.00391609 0.00391609 0.00391609 0.163875 0.163875 0.163875 0.163875 0.352281 0.352281 0.352281 0.352281 0.0526083 0.0526083 0.0526083 0.0526083 0.188218 0.188218 0.188218 0.188218 0.933595 0.933595 0.933595 0.933595 0.921859 0.921859 0.921859 0.921859 0.806217 0.806217 0.806217 0.806217 0.756633 0.756633 0.756633 0.756633 0.931001 0.931001 0.931001 0.931001 0.921567 0.921567 0.921567 0.921567 0.749419 0.749419 0.749419 0.749419 0.734324 0.734324 0.734324 0.734324 0.662257 0.662257 0.662257 0.662257 0.551409 0.551409 0.551409 0.551409 0.602309 0.602309 0.602309 0.602309 0.443317 0.443317 0.443317 0.443317 0.487483 0.487483 0.487483 0.487483 0.459968 0.459968 0.459968 0.459968 0.312872 0.312872 0.312872 0.312872 0.238741 0.238741 0.238741 0.238741 0.904076 0.904076 0.904076 0.904076 0.908243 0.908243 0.908243 0.908243 0.716294 0.716294 0.716294 0.716294 0.744619 0.744619 0.744619 0.744619 0.94229 0.94229 0.94229 0.94229 0.969948 0.969948 0.969948 0.969948 0.809508 0.809508 0.809508 0.809508 0.867247 0.867247 0.867247 0.867247 0.4611 0.4611 0.4611 0.4611 0.541276 0.541276 0.541276 0.541276 0.271745 0.271745 0.271745 0.271745 0.422202 0.422202 0.422202 0.422202 0.651789 0.651789 0.651789 0.651789 0.706605 0.706605 0.706605 0.706605 0.545629 0.545629 0.545629 0.545629 0.543135 0.543135 0.543135 0.543135 0.659194 0.659194 0.659194 0.659194 0.538584 0.538584 0.538584 0.538584 0.680217 0.680217 0.680217 0.680217 0.688272 0.688272 0.688272 0.688272 0.373121 0.373121 0.373121 0.373121 0.27379 0.27379 0.27379 0.27379 0.593506 0.593506 0.593506 0.593506 0.507106 0.507106 0.507106 0.507106 0.564974 0.564974 0.564974 0.564974 0.714236 0.714236 0.714236 0.714236 0.409072 0.409072 0.409072 0.409072 0.650981 0.650981 0.650981 0.650981 0.763438 0.763438 0.763438 0.763438 0.751873 0.751873 0.751873 0.751873 0.826414 0.826414 0.826414 0.826414 0.886131 0.886131 0.886131 0.886131 0.314687 0.314687 0.314687 0.314687 0.461672 0.461672 0.461672 0.461672 0.521475 0.521475 0.521475 0.521475 0.575908 0.575908 0.575908 0.575908 0.536565 0.536565 0.536565 0.536565 0.44306 0.44306 0.44306 0.44306 0.533157 0.533157 0.533157 0.533157 0.349172 0.349172 0.349172 0.349172 0.719674 0.719674 0.719674 0.719674 0.632365 0.632365 0.632365 0.632365 0.824297 0.824297 0.824297 0.824297 0.64269 0.64269 0.64269 0.64269 0.459511 0.459511 0.459511 0.459511 0.234124 0.234124 0.234124 0.234124 0.37479 0.37479 0.37479 0.37479 0.13485 0.13485 0.13485 0.13485 0.946001 0.946001 0.946001 0.946001 0.857225 0.857225 0.857225 0.857225 0.869302 0.869302 0.869302 0.869302 0.832975 0.832975 0.832975 0.832975 0.712587 0.712587 0.712587 0.712587 0.546891 0.546891 0.546891 0.546891 0.790262 0.790262 0.790262 0.790262 0.715885 0.715885 0.715885 0.715885 0.698189 0.698189 0.698189 0.698189 0.687637 0.687637 0.687637 0.687637 0.458728 0.458728 0.458728 0.458728 0.423145 0.423145 0.423145 0.423145 0.723386 0.723386 0.723386 0.723386 0.753807 0.753807 0.753807 0.753807 0.483237 0.483237 0.483237 0.483237 0.601326 0.601326 0.601326 0.601326 0.384703 0.384703 0.384703 0.384703 0.246266 0.246266 0.246266 0.246266 0.608667 0.608667 0.608667 0.608667 0.462824 0.462824 0.462824 0.462824 0.124711 0.124711 0.124711 0.124711 0.0425083 0.0425083 0.0425083 0.0425083 0.313764 0.313764 0.313764 0.313764 0.190141 0.190141 0.190141 0.190141 0.752679 0.752679 0.752679 0.752679 0.689783 0.689783 0.689783 0.689783 0.699829 0.699829 0.699829 0.699829 0.747887 0.747887 0.747887 0.747887 0.577367 0.577367 0.577367 0.577367 0.440338 0.440338 0.440338 0.440338 0.75022 0.75022 0.75022 0.75022 0.706535 0.706535 0.706535 0.706535 0.264563 0.264563 0.264563 0.264563 0.175884 0.175884 0.175884 0.175884 0.144264 0.144264 0.144264 0.144264 0.0393536 0.0393536 0.0393536 0.0393536 0.202657 0.202657 0.202657 0.202657 0.307607 0.307607 0.307607 0.307607 0.0406585 0.0406585 0.0406585 0.0406585 0.0937306 0.0937306 0.0937306 0.0937306 0.0675575 0.0675575 0.0675575 0.0675575 0.00435187 0.00435187 0.00435187 0.00435187 0.017641 0.017641 0.017641 0.017641 3.08164e-06 3.08164e-06 3.08164e-06 3.08164e-06 0.000331324 0.000331324 0.000331324 0.000331324 0.00482298 0.00482298 0.00482298 0.00482298 2.93053e-08 2.93053e-08 2.93053e-08 2.93053e-08 5.51926e-08 5.51926e-08 5.51926e-08 5.51926e-08 0.432132 0.432132 0.432132 0.432132 0.572356 0.572356 0.572356 0.572356 0.170683 0.170683 0.170683 0.170683 0.285116 0.285116 0.285116 0.285116 0.688599 0.688599 0.688599 0.688599 0.757547 0.757547 0.757547 0.757547 0.423336 0.423336 0.423336 0.423336 0.570427 0.570427 0.570427 0.570427 0.0280325 0.0280325 0.0280325 0.0280325 0.0850074 0.0850074 0.0850074 0.0850074 2.77388e-06 2.77388e-06 2.77388e-06 2.77388e-06 0.00478951 0.00478951 0.00478951 0.00478951 0.168981 0.168981 0.168981 0.168981 0.280217 0.280217 0.280217 0.280217 0.0279791 0.0279791 0.0279791 0.0279791 0.0859001 0.0859001 0.0859001 0.0859001 0.00844179 0.00844179 0.00844179 0.00844179 0.000823747 0.000823747 0.000823747 0.000823747 0.106392 0.106392 0.106392 0.106392 0.0471407 0.0471407 0.0471407 0.0471407 8.01154e-08 8.01154e-08 8.01154e-08 8.01154e-08 1.92466e-08 1.92466e-08 1.92466e-08 1.92466e-08 0.0156824 0.0156824 0.0156824 0.0156824 0.00266524 0.00266524 0.00266524 0.00266524 0.315964 0.315964 0.315964 0.315964 0.208841 0.208841 0.208841 0.208841 0.609354 0.609354 0.609354 0.609354 0.493789 0.493789 0.493789 0.493789 0.134056 0.134056 0.134056 0.134056 0.0717574 0.0717574 0.0717574 0.0717574 0.378643 0.378643 0.378643 0.378643 0.264822 0.264822 0.264822 0.264822 7.56739e-09 7.56739e-09 7.56739e-09 7.56739e-09 3.73779e-09 3.73779e-09 3.73779e-09 3.73779e-09 1.13685e-07 1.13685e-07 1.13685e-07 1.13685e-07 2.34519e-08 2.34519e-08 2.34519e-08 2.34519e-08 1.85979e-09 1.85979e-09 1.85979e-09 1.85979e-09 9.2866e-10 9.2866e-10 9.2866e-10 9.2866e-10 9.15243e-09 9.15243e-09 9.15243e-09 9.15243e-09 5.47269e-09 5.47269e-09 5.47269e-09 5.47269e-09 0.0279805 0.0279805 0.0279805 0.0279805 0.00458933 0.00458933 0.00458933 0.00458933 0.163331 0.163331 0.163331 0.163331 0.0773445 0.0773445 0.0773445 0.0773445 6.47575e-07 6.47575e-07 6.47575e-07 6.47575e-07 6.84479e-08 6.84479e-08 6.84479e-08 6.84479e-08 0.0245309 0.0245309 0.0245309 0.0245309 0.00533867 0.00533867 0.00533867 0.00533867 0.770833 0.770833 0.770833 0.770833 0.749877 0.749877 0.749877 0.749877 0.688491 0.688491 0.688491 0.688491 0.768673 0.768673 0.768673 0.768673 0.672665 0.672665 0.672665 0.672665 0.556838 0.556838 0.556838 0.556838 0.784517 0.784517 0.784517 0.784517 0.75323 0.75323 0.75323 0.75323 0.412186 0.412186 0.412186 0.412186 0.538634 0.538634 0.538634 0.538634 0.184378 0.184378 0.184378 0.184378 0.297012 0.297012 0.297012 0.297012 0.640657 0.640657 0.640657 0.640657 0.728867 0.728867 0.728867 0.728867 0.434656 0.434656 0.434656 0.434656 0.597403 0.597403 0.597403 0.597403 0.409556 0.409556 0.409556 0.409556 0.267476 0.267476 0.267476 0.267476 0.666061 0.666061 0.666061 0.666061 0.546229 0.546229 0.546229 0.546229 0.169757 0.169757 0.169757 0.169757 0.11791 0.11791 0.11791 0.11791 0.439259 0.439259 0.439259 0.439259 0.373739 0.373739 0.373739 0.373739 0.77761 0.77761 0.77761 0.77761 0.776833 0.776833 0.776833 0.776833 0.771754 0.771754 0.771754 0.771754 0.889743 0.889743 0.889743 0.889743 0.735787 0.735787 0.735787 0.735787 0.690865 0.690865 0.690865 0.690865 0.921131 0.921131 0.921131 0.921131 0.910205 0.910205 0.910205 0.910205 1.95885e-09 1.95885e-09 1.95885e-09 1.95885e-09 2.00192e-09 2.00192e-09 2.00192e-09 2.00192e-09 1.05316e-08 1.05316e-08 1.05316e-08 1.05316e-08 1.10097e-08 1.10097e-08 1.10097e-08 1.10097e-08 3.4496e-09 3.4496e-09 3.4496e-09 3.4496e-09 1.00529e-08 1.00529e-08 1.00529e-08 1.00529e-08 1.46064e-08 1.46064e-08 1.46064e-08 1.46064e-08 3.69563e-08 3.69563e-08 3.69563e-08 3.69563e-08 0.0013242 0.0013242 0.0013242 0.0013242 0.000954103 0.000954103 0.000954103 0.000954103 0.0923482 0.0923482 0.0923482 0.0923482 0.0932512 0.0932512 0.0932512 0.0932512 0.000868136 0.000868136 0.000868136 0.000868136 0.00478332 0.00478332 0.00478332 0.00478332 0.0889437 0.0889437 0.0889437 0.0889437 0.112592 0.112592 0.112592 0.112592 5.47934e-08 5.47934e-08 5.47934e-08 5.47934e-08 0.00391609 0.00391609 0.00391609 0.00391609 0.0024406 0.0024406 0.0024406 0.0024406 0.0432047 0.0432047 0.0432047 0.0432047 0.0526083 0.0526083 0.0526083 0.0526083 0.188218 0.188218 0.188218 0.188218 0.163875 0.163875 0.163875 0.163875 0.352281 0.352281 0.352281 0.352281 0.0432838 0.0432838 0.0432838 0.0432838 0.157054 0.157054 0.157054 0.157054 0.194053 0.194053 0.194053 0.194053 0.356913 0.356913 0.356913 0.356913 0.346971 0.346971 0.346971 0.346971 0.550602 0.550602 0.550602 0.550602 0.549389 0.549389 0.549389 0.549389 0.666376 0.666376 0.666376 0.666376 0.334697 0.334697 0.334697 0.334697 0.336348 0.336348 0.336348 0.336348 0.664975 0.664975 0.664975 0.664975 0.663414 0.663414 0.663414 0.663414 0.334738 0.334738 0.334738 0.334738 0.368247 0.368247 0.368247 0.368247 0.665918 0.665918 0.665918 0.665918 0.689408 0.689408 0.689408 0.689408 0.900369 0.900369 0.900369 0.900369 0.899382 0.899382 0.899382 0.899382 0.998239 0.998239 0.998239 0.998239 0.998727 0.998727 0.998727 0.998727 0.904589 0.904589 0.904589 0.904589 0.908773 0.908773 0.908773 0.908773 0.998849 0.998849 0.998849 0.998849 0.998851 0.998851 0.998851 0.998851 0.460899 0.460899 0.460899 0.460899 0.617224 0.617224 0.617224 0.617224 0.751963 0.751963 0.751963 0.751963 0.845287 0.845287 0.845287 0.845287 0.73303 0.73303 0.73303 0.73303 0.73434 0.73434 0.73434 0.73434 0.878764 0.878764 0.878764 0.878764 0.810788 0.810788 0.810788 0.810788 0.933646 0.933646 0.933646 0.933646 0.970125 0.970125 0.970125 0.970125 0.998851 0.998851 0.998851 0.998851 1 1 1 1 0.966306 0.966306 0.966306 0.966306 0.895937 0.895937 0.895937 0.895937 0.994814 0.994814 0.994814 0.994814 0.965006 0.965006 0.965006 0.965006 0.409072 0.409072 0.409072 0.409072 0.650981 0.650981 0.650981 0.650981 0.564974 0.564974 0.564974 0.564974 0.714236 0.714236 0.714236 0.714236 0.826414 0.826414 0.826414 0.826414 0.886131 0.886131 0.886131 0.886131 0.763438 0.763438 0.763438 0.763438 0.751873 0.751873 0.751873 0.751873 0.680217 0.680217 0.680217 0.680217 0.688272 0.688272 0.688272 0.688272 0.659194 0.659194 0.659194 0.659194 0.538584 0.538584 0.538584 0.538584 0.593506 0.593506 0.593506 0.593506 0.507106 0.507106 0.507106 0.507106 0.373121 0.373121 0.373121 0.373121 0.27379 0.27379 0.27379 0.27379 0.824297 0.824297 0.824297 0.824297 0.64269 0.64269 0.64269 0.64269 0.719674 0.719674 0.719674 0.719674 0.632365 0.632365 0.632365 0.632365 0.37479 0.37479 0.37479 0.37479 0.13485 0.13485 0.13485 0.13485 0.459511 0.459511 0.459511 0.459511 0.234124 0.234124 0.234124 0.234124 0.521475 0.521475 0.521475 0.521475 0.575908 0.575908 0.575908 0.575908 0.314687 0.314687 0.314687 0.314687 0.461672 0.461672 0.461672 0.461672 0.533157 0.533157 0.533157 0.533157 0.349172 0.349172 0.349172 0.349172 0.536565 0.536565 0.536565 0.536565 0.44306 0.44306 0.44306 0.44306 0.602309 0.602309 0.602309 0.602309 0.443317 0.443317 0.443317 0.443317 0.662257 0.662257 0.662257 0.662257 0.551409 0.551409 0.551409 0.551409 0.312872 0.312872 0.312872 0.312872 0.238741 0.238741 0.238741 0.238741 0.487483 0.487483 0.487483 0.487483 0.459968 0.459968 0.459968 0.459968 0.806217 0.806217 0.806217 0.806217 0.756633 0.756633 0.756633 0.756633 0.933595 0.933595 0.933595 0.933595 0.921859 0.921859 0.921859 0.921859 0.749419 0.749419 0.749419 0.749419 0.734324 0.734324 0.734324 0.734324 0.931001 0.931001 0.931001 0.931001 0.921567 0.921567 0.921567 0.921567 0.271745 0.271745 0.271745 0.271745 0.422202 0.422202 0.422202 0.422202 0.4611 0.4611 0.4611 0.4611 0.541276 0.541276 0.541276 0.541276 0.545629 0.545629 0.545629 0.545629 0.543135 0.543135 0.543135 0.543135 0.651789 0.651789 0.651789 0.651789 0.706605 0.706605 0.706605 0.706605 0.716294 0.716294 0.716294 0.716294 0.744619 0.744619 0.744619 0.744619 0.904076 0.904076 0.904076 0.904076 0.908243 0.908243 0.908243 0.908243 0.809508 0.809508 0.809508 0.809508 0.867247 0.867247 0.867247 0.867247 0.94229 0.94229 0.94229 0.94229 0.969948 0.969948 0.969948 0.969948 0.017641 0.017641 0.017641 0.017641 3.08164e-06 3.08164e-06 3.08164e-06 3.08164e-06 0.0675575 0.0675575 0.0675575 0.0675575 0.00435187 0.00435187 0.00435187 0.00435187 2.93053e-08 2.93053e-08 2.93053e-08 2.93053e-08 5.51926e-08 5.51926e-08 5.51926e-08 5.51926e-08 0.000331324 0.000331324 0.000331324 0.000331324 0.00482298 0.00482298 0.00482298 0.00482298 0.144264 0.144264 0.144264 0.144264 0.0393536 0.0393536 0.0393536 0.0393536 0.264563 0.264563 0.264563 0.264563 0.175884 0.175884 0.175884 0.175884 0.0406585 0.0406585 0.0406585 0.0406585 0.0937306 0.0937306 0.0937306 0.0937306 0.202657 0.202657 0.202657 0.202657 0.307607 0.307607 0.307607 0.307607 2.77388e-06 2.77388e-06 2.77388e-06 2.77388e-06 0.00478951 0.00478951 0.00478951 0.00478951 0.0280325 0.0280325 0.0280325 0.0280325 0.0850074 0.0850074 0.0850074 0.0850074 0.0279791 0.0279791 0.0279791 0.0279791 0.0859001 0.0859001 0.0859001 0.0859001 0.168981 0.168981 0.168981 0.168981 0.280217 0.280217 0.280217 0.280217 0.170683 0.170683 0.170683 0.170683 0.285116 0.285116 0.285116 0.285116 0.432132 0.432132 0.432132 0.432132 0.572356 0.572356 0.572356 0.572356 0.423336 0.423336 0.423336 0.423336 0.570427 0.570427 0.570427 0.570427 0.688599 0.688599 0.688599 0.688599 0.757547 0.757547 0.757547 0.757547 0.458728 0.458728 0.458728 0.458728 0.423145 0.423145 0.423145 0.423145 0.698189 0.698189 0.698189 0.698189 0.687637 0.687637 0.687637 0.687637 0.483237 0.483237 0.483237 0.483237 0.601326 0.601326 0.601326 0.601326 0.723386 0.723386 0.723386 0.723386 0.753807 0.753807 0.753807 0.753807 0.869302 0.869302 0.869302 0.869302 0.832975 0.832975 0.832975 0.832975 0.946001 0.946001 0.946001 0.946001 0.857225 0.857225 0.857225 0.857225 0.790262 0.790262 0.790262 0.790262 0.715885 0.715885 0.715885 0.715885 0.712587 0.712587 0.712587 0.712587 0.546891 0.546891 0.546891 0.546891 0.699829 0.699829 0.699829 0.699829 0.747887 0.747887 0.747887 0.747887 0.752679 0.752679 0.752679 0.752679 0.689783 0.689783 0.689783 0.689783 0.75022 0.75022 0.75022 0.75022 0.706535 0.706535 0.706535 0.706535 0.577367 0.577367 0.577367 0.577367 0.440338 0.440338 0.440338 0.440338 0.608667 0.608667 0.608667 0.608667 0.462824 0.462824 0.462824 0.462824 0.384703 0.384703 0.384703 0.384703 0.246266 0.246266 0.246266 0.246266 0.313764 0.313764 0.313764 0.313764 0.190141 0.190141 0.190141 0.190141 0.124711 0.124711 0.124711 0.124711 0.0425083 0.0425083 0.0425083 0.0425083 0.184378 0.184378 0.184378 0.184378 0.297012 0.297012 0.297012 0.297012 0.412186 0.412186 0.412186 0.412186 0.538634 0.538634 0.538634 0.538634 0.434656 0.434656 0.434656 0.434656 0.597403 0.597403 0.597403 0.597403 0.640657 0.640657 0.640657 0.640657 0.728867 0.728867 0.728867 0.728867 0.688491 0.688491 0.688491 0.688491 0.768673 0.768673 0.768673 0.768673 0.770833 0.770833 0.770833 0.770833 0.749877 0.749877 0.749877 0.749877 0.784517 0.784517 0.784517 0.784517 0.75323 0.75323 0.75323 0.75323 0.672665 0.672665 0.672665 0.672665 0.556838 0.556838 0.556838 0.556838 0.771754 0.771754 0.771754 0.771754 0.889743 0.889743 0.889743 0.889743 0.77761 0.77761 0.77761 0.77761 0.776833 0.776833 0.776833 0.776833 0.921131 0.921131 0.921131 0.921131 0.910205 0.910205 0.910205 0.910205 0.735787 0.735787 0.735787 0.735787 0.690865 0.690865 0.690865 0.690865 0.666061 0.666061 0.666061 0.666061 0.546229 0.546229 0.546229 0.546229 0.409556 0.409556 0.409556 0.409556 0.267476 0.267476 0.267476 0.267476 0.439259 0.439259 0.439259 0.439259 0.373739 0.373739 0.373739 0.373739 0.169757 0.169757 0.169757 0.169757 0.11791 0.11791 0.11791 0.11791 0.609354 0.609354 0.609354 0.609354 0.493789 0.493789 0.493789 0.493789 0.315964 0.315964 0.315964 0.315964 0.208841 0.208841 0.208841 0.208841 0.378643 0.378643 0.378643 0.378643 0.264822 0.264822 0.264822 0.264822 0.134056 0.134056 0.134056 0.134056 0.0717574 0.0717574 0.0717574 0.0717574 0.106392 0.106392 0.106392 0.106392 0.0471407 0.0471407 0.0471407 0.0471407 0.00844179 0.00844179 0.00844179 0.00844179 0.000823747 0.000823747 0.000823747 0.000823747 0.0156824 0.0156824 0.0156824 0.0156824 0.00266524 0.00266524 0.00266524 0.00266524 8.01154e-08 8.01154e-08 8.01154e-08 8.01154e-08 1.92466e-08 1.92466e-08 1.92466e-08 1.92466e-08 0.163331 0.163331 0.163331 0.163331 0.0773445 0.0773445 0.0773445 0.0773445 0.0279805 0.0279805 0.0279805 0.0279805 0.00458933 0.00458933 0.00458933 0.00458933 0.0245309 0.0245309 0.0245309 0.0245309 0.00533867 0.00533867 0.00533867 0.00533867 6.47575e-07 6.47575e-07 6.47575e-07 6.47575e-07 6.84479e-08 6.84479e-08 6.84479e-08 6.84479e-08 1.13685e-07 1.13685e-07 1.13685e-07 1.13685e-07 2.34519e-08 2.34519e-08 2.34519e-08 2.34519e-08 7.56739e-09 7.56739e-09 7.56739e-09 7.56739e-09 3.73779e-09 3.73779e-09 3.73779e-09 3.73779e-09 9.15243e-09 9.15243e-09 9.15243e-09 9.15243e-09 5.47269e-09 5.47269e-09 5.47269e-09 5.47269e-09 1.85979e-09 1.85979e-09 1.85979e-09 1.85979e-09 9.2866e-10 9.2866e-10 9.2866e-10 9.2866e-10 
