# vtk DataFile Version 3.0
#This file was generated by the deal.II library on 2016/3/9 at 8:36:03
ASCII
DATASET UNSTRUCTURED_GRID

POINTS 2048 double
0 0 0
0.0625 0 0
0 0.0625 0
0.0625 0.0625 0
0.0625 0 0
0.125 0 0
0.0625 0.0625 0
0.125 0.0625 0
0 0.0625 0
0.0625 0.0625 0
0 0.125 0
0.0625 0.125 0
0.0625 0.0625 0
0.125 0.0625 0
0.0625 0.125 0
0.125 0.125 0
0.125 0 0
0.1875 0 0
0.125 0.0625 0
0.1875 0.0625 0
0.1875 0 0
0.25 0 0
0.1875 0.0625 0
0.25 0.0625 0
0.125 0.0625 0
0.1875 0.0625 0
0.125 0.125 0
0.1875 0.125 0
0.1875 0.0625 0
0.25 0.0625 0
0.1875 0.125 0
0.25 0.125 0
0 0.125 0
0.0625 0.125 0
0 0.1875 0
0.0625 0.1875 0
0.0625 0.125 0
0.125 0.125 0
0.0625 0.1875 0
0.125 0.1875 0
0 0.1875 0
0.0625 0.1875 0
0 0.25 0
0.0625 0.25 0
0.0625 0.1875 0
0.125 0.1875 0
0.0625 0.25 0
0.125 0.25 0
0.125 0.125 0
0.1875 0.125 0
0.125 0.1875 0
0.1875 0.1875 0
0.1875 0.125 0
0.25 0.125 0
0.1875 0.1875 0
0.25 0.1875 0
0.125 0.1875 0
0.1875 0.1875 0
0.125 0.25 0
0.1875 0.25 0
0.1875 0.1875 0
0.25 0.1875 0
0.1875 0.25 0
0.25 0.25 0
0.25 0 0
0.3125 0 0
0.25 0.0625 0
0.3125 0.0625 0
0.3125 0 0
0.375 0 0
0.3125 0.0625 0
0.375 0.0625 0
0.25 0.0625 0
0.3125 0.0625 0
0.25 0.125 0
0.3125 0.125 0
0.3125 0.0625 0
0.375 0.0625 0
0.3125 0.125 0
0.375 0.125 0
0.375 0 0
0.4375 0 0
0.375 0.0625 0
0.4375 0.0625 0
0.4375 0 0
0.5 0 0
0.4375 0.0625 0
0.5 0.0625 0
0.375 0.0625 0
0.4375 0.0625 0
0.375 0.125 0
0.4375 0.125 0
0.4375 0.0625 0
0.5 0.0625 0
0.4375 0.125 0
0.5 0.125 0
0.25 0.125 0
0.3125 0.125 0
0.25 0.1875 0
0.3125 0.1875 0
0.3125 0.125 0
0.375 0.125 0
0.3125 0.1875 0
0.375 0.1875 0
0.25 0.1875 0
0.3125 0.1875 0
0.25 0.25 0
0.3125 0.25 0
0.3125 0.1875 0
0.375 0.1875 0
0.3125 0.25 0
0.375 0.25 0
0.375 0.125 0
0.4375 0.125 0
0.375 0.1875 0
0.4375 0.1875 0
0.4375 0.125 0
0.5 0.125 0
0.4375 0.1875 0
0.5 0.1875 0
0.375 0.1875 0
0.4375 0.1875 0
0.375 0.25 0
0.4375 0.25 0
0.4375 0.1875 0
0.5 0.1875 0
0.4375 0.25 0
0.5 0.25 0
0 0.25 0
0.0625 0.25 0
0 0.3125 0
0.0625 0.3125 0
0.0625 0.25 0
0.125 0.25 0
0.0625 0.3125 0
0.125 0.3125 0
0 0.3125 0
0.0625 0.3125 0
0 0.375 0
0.0625 0.375 0
0.0625 0.3125 0
0.125 0.3125 0
0.0625 0.375 0
0.125 0.375 0
0.125 0.25 0
0.1875 0.25 0
0.125 0.3125 0
0.1875 0.3125 0
0.1875 0.25 0
0.25 0.25 0
0.1875 0.3125 0
0.25 0.3125 0
0.125 0.3125 0
0.1875 0.3125 0
0.125 0.375 0
0.1875 0.375 0
0.1875 0.3125 0
0.25 0.3125 0
0.1875 0.375 0
0.25 0.375 0
0 0.375 0
0.0625 0.375 0
0 0.4375 0
0.0625 0.4375 0
0.0625 0.375 0
0.125 0.375 0
0.0625 0.4375 0
0.125 0.4375 0
0 0.4375 0
0.0625 0.4375 0
0 0.5 0
0.0625 0.5 0
0.0625 0.4375 0
0.125 0.4375 0
0.0625 0.5 0
0.125 0.5 0
0.125 0.375 0
0.1875 0.375 0
0.125 0.4375 0
0.1875 0.4375 0
0.1875 0.375 0
0.25 0.375 0
0.1875 0.4375 0
0.25 0.4375 0
0.125 0.4375 0
0.1875 0.4375 0
0.125 0.5 0
0.1875 0.5 0
0.1875 0.4375 0
0.25 0.4375 0
0.1875 0.5 0
0.25 0.5 0
0.25 0.25 0
0.3125 0.25 0
0.25 0.3125 0
0.3125 0.3125 0
0.3125 0.25 0
0.375 0.25 0
0.3125 0.3125 0
0.375 0.3125 0
0.25 0.3125 0
0.3125 0.3125 0
0.25 0.375 0
0.3125 0.375 0
0.3125 0.3125 0
0.375 0.3125 0
0.3125 0.375 0
0.375 0.375 0
0.375 0.25 0
0.4375 0.25 0
0.375 0.3125 0
0.4375 0.3125 0
0.4375 0.25 0
0.5 0.25 0
0.4375 0.3125 0
0.5 0.3125 0
0.375 0.3125 0
0.4375 0.3125 0
0.375 0.375 0
0.4375 0.375 0
0.4375 0.3125 0
0.5 0.3125 0
0.4375 0.375 0
0.5 0.375 0
0.25 0.375 0
0.3125 0.375 0
0.25 0.4375 0
0.3125 0.4375 0
0.3125 0.375 0
0.375 0.375 0
0.3125 0.4375 0
0.375 0.4375 0
0.25 0.4375 0
0.3125 0.4375 0
0.25 0.5 0
0.3125 0.5 0
0.3125 0.4375 0
0.375 0.4375 0
0.3125 0.5 0
0.375 0.5 0
0.375 0.375 0
0.4375 0.375 0
0.375 0.4375 0
0.4375 0.4375 0
0.4375 0.375 0
0.5 0.375 0
0.4375 0.4375 0
0.5 0.4375 0
0.375 0.4375 0
0.4375 0.4375 0
0.375 0.5 0
0.4375 0.5 0
0.4375 0.4375 0
0.5 0.4375 0
0.4375 0.5 0
0.5 0.5 0
0.5 0 0
0.5625 0 0
0.5 0.0625 0
0.5625 0.0625 0
0.5625 0 0
0.625 0 0
0.5625 0.0625 0
0.625 0.0625 0
0.5 0.0625 0
0.5625 0.0625 0
0.5 0.125 0
0.5625 0.125 0
0.5625 0.0625 0
0.625 0.0625 0
0.5625 0.125 0
0.625 0.125 0
0.625 0 0
0.6875 0 0
0.625 0.0625 0
0.6875 0.0625 0
0.6875 0 0
0.75 0 0
0.6875 0.0625 0
0.75 0.0625 0
0.625 0.0625 0
0.6875 0.0625 0
0.625 0.125 0
0.6875 0.125 0
0.6875 0.0625 0
0.75 0.0625 0
0.6875 0.125 0
0.75 0.125 0
0.5 0.125 0
0.5625 0.125 0
0.5 0.1875 0
0.5625 0.1875 0
0.5625 0.125 0
0.625 0.125 0
0.5625 0.1875 0
0.625 0.1875 0
0.5 0.1875 0
0.5625 0.1875 0
0.5 0.25 0
0.5625 0.25 0
0.5625 0.1875 0
0.625 0.1875 0
0.5625 0.25 0
0.625 0.25 0
0.625 0.125 0
0.6875 0.125 0
0.625 0.1875 0
0.6875 0.1875 0
0.6875 0.125 0
0.75 0.125 0
0.6875 0.1875 0
0.75 0.1875 0
0.625 0.1875 0
0.6875 0.1875 0
0.625 0.25 0
0.6875 0.25 0
0.6875 0.1875 0
0.75 0.1875 0
0.6875 0.25 0
0.75 0.25 0
0.75 0 0
0.8125 0 0
0.75 0.0625 0
0.8125 0.0625 0
0.8125 0 0
0.875 0 0
0.8125 0.0625 0
0.875 0.0625 0
0.75 0.0625 0
0.8125 0.0625 0
0.75 0.125 0
0.8125 0.125 0
0.8125 0.0625 0
0.875 0.0625 0
0.8125 0.125 0
0.875 0.125 0
0.875 0 0
0.9375 0 0
0.875 0.0625 0
0.9375 0.0625 0
0.9375 0 0
1 0 0
0.9375 0.0625 0
1 0.0625 0
0.875 0.0625 0
0.9375 0.0625 0
0.875 0.125 0
0.9375 0.125 0
0.9375 0.0625 0
1 0.0625 0
0.9375 0.125 0
1 0.125 0
0.75 0.125 0
0.8125 0.125 0
0.75 0.1875 0
0.8125 0.1875 0
0.8125 0.125 0
0.875 0.125 0
0.8125 0.1875 0
0.875 0.1875 0
0.75 0.1875 0
0.8125 0.1875 0
0.75 0.25 0
0.8125 0.25 0
0.8125 0.1875 0
0.875 0.1875 0
0.8125 0.25 0
0.875 0.25 0
0.875 0.125 0
0.9375 0.125 0
0.875 0.1875 0
0.9375 0.1875 0
0.9375 0.125 0
1 0.125 0
0.9375 0.1875 0
1 0.1875 0
0.875 0.1875 0
0.9375 0.1875 0
0.875 0.25 0
0.9375 0.25 0
0.9375 0.1875 0
1 0.1875 0
0.9375 0.25 0
1 0.25 0
0.5 0.25 0
0.5625 0.25 0
0.5 0.3125 0
0.5625 0.3125 0
0.5625 0.25 0
0.625 0.25 0
0.5625 0.3125 0
0.625 0.3125 0
0.5 0.3125 0
0.5625 0.3125 0
0.5 0.375 0
0.5625 0.375 0
0.5625 0.3125 0
0.625 0.3125 0
0.5625 0.375 0
0.625 0.375 0
0.625 0.25 0
0.6875 0.25 0
0.625 0.3125 0
0.6875 0.3125 0
0.6875 0.25 0
0.75 0.25 0
0.6875 0.3125 0
0.75 0.3125 0
0.625 0.3125 0
0.6875 0.3125 0
0.625 0.375 0
0.6875 0.375 0
0.6875 0.3125 0
0.75 0.3125 0
0.6875 0.375 0
0.75 0.375 0
0.5 0.375 0
0.5625 0.375 0
0.5 0.4375 0
0.5625 0.4375 0
0.5625 0.375 0
0.625 0.375 0
0.5625 0.4375 0
0.625 0.4375 0
0.5 0.4375 0
0.5625 0.4375 0
0.5 0.5 0
0.5625 0.5 0
0.5625 0.4375 0
0.625 0.4375 0
0.5625 0.5 0
0.625 0.5 0
0.625 0.375 0
0.6875 0.375 0
0.625 0.4375 0
0.6875 0.4375 0
0.6875 0.375 0
0.75 0.375 0
0.6875 0.4375 0
0.75 0.4375 0
0.625 0.4375 0
0.6875 0.4375 0
0.625 0.5 0
0.6875 0.5 0
0.6875 0.4375 0
0.75 0.4375 0
0.6875 0.5 0
0.75 0.5 0
0.75 0.25 0
0.8125 0.25 0
0.75 0.3125 0
0.8125 0.3125 0
0.8125 0.25 0
0.875 0.25 0
0.8125 0.3125 0
0.875 0.3125 0
0.75 0.3125 0
0.8125 0.3125 0
0.75 0.375 0
0.8125 0.375 0
0.8125 0.3125 0
0.875 0.3125 0
0.8125 0.375 0
0.875 0.375 0
0.875 0.25 0
0.9375 0.25 0
0.875 0.3125 0
0.9375 0.3125 0
0.9375 0.25 0
1 0.25 0
0.9375 0.3125 0
1 0.3125 0
0.875 0.3125 0
0.9375 0.3125 0
0.875 0.375 0
0.9375 0.375 0
0.9375 0.3125 0
1 0.3125 0
0.9375 0.375 0
1 0.375 0
0.75 0.375 0
0.8125 0.375 0
0.75 0.4375 0
0.8125 0.4375 0
0.8125 0.375 0
0.875 0.375 0
0.8125 0.4375 0
0.875 0.4375 0
0.75 0.4375 0
0.8125 0.4375 0
0.75 0.5 0
0.8125 0.5 0
0.8125 0.4375 0
0.875 0.4375 0
0.8125 0.5 0
0.875 0.5 0
0.875 0.375 0
0.9375 0.375 0
0.875 0.4375 0
0.9375 0.4375 0
0.9375 0.375 0
1 0.375 0
0.9375 0.4375 0
1 0.4375 0
0.875 0.4375 0
0.9375 0.4375 0
0.875 0.5 0
0.9375 0.5 0
0.9375 0.4375 0
1 0.4375 0
0.9375 0.5 0
1 0.5 0
1 0 0
1.0625 0 0
1 0.0625 0
1.0625 0.0625 0
1.0625 0 0
1.125 0 0
1.0625 0.0625 0
1.125 0.0625 0
1 0.0625 0
1.0625 0.0625 0
1 0.125 0
1.0625 0.125 0
1.0625 0.0625 0
1.125 0.0625 0
1.0625 0.125 0
1.125 0.125 0
1.125 0 0
1.1875 0 0
1.125 0.0625 0
1.1875 0.0625 0
1.1875 0 0
1.25 0 0
1.1875 0.0625 0
1.25 0.0625 0
1.125 0.0625 0
1.1875 0.0625 0
1.125 0.125 0
1.1875 0.125 0
1.1875 0.0625 0
1.25 0.0625 0
1.1875 0.125 0
1.25 0.125 0
1 0.125 0
1.0625 0.125 0
1 0.1875 0
1.0625 0.1875 0
1.0625 0.125 0
1.125 0.125 0
1.0625 0.1875 0
1.125 0.1875 0
1 0.1875 0
1.0625 0.1875 0
1 0.25 0
1.0625 0.25 0
1.0625 0.1875 0
1.125 0.1875 0
1.0625 0.25 0
1.125 0.25 0
1.125 0.125 0
1.1875 0.125 0
1.125 0.1875 0
1.1875 0.1875 0
1.1875 0.125 0
1.25 0.125 0
1.1875 0.1875 0
1.25 0.1875 0
1.125 0.1875 0
1.1875 0.1875 0
1.125 0.25 0
1.1875 0.25 0
1.1875 0.1875 0
1.25 0.1875 0
1.1875 0.25 0
1.25 0.25 0
1.25 0 0
1.3125 0 0
1.25 0.0625 0
1.3125 0.0625 0
1.3125 0 0
1.375 0 0
1.3125 0.0625 0
1.375 0.0625 0
1.25 0.0625 0
1.3125 0.0625 0
1.25 0.125 0
1.3125 0.125 0
1.3125 0.0625 0
1.375 0.0625 0
1.3125 0.125 0
1.375 0.125 0
1.375 0 0
1.4375 0 0
1.375 0.0625 0
1.4375 0.0625 0
1.4375 0 0
1.5 0 0
1.4375 0.0625 0
1.5 0.0625 0
1.375 0.0625 0
1.4375 0.0625 0
1.375 0.125 0
1.4375 0.125 0
1.4375 0.0625 0
1.5 0.0625 0
1.4375 0.125 0
1.5 0.125 0
1.25 0.125 0
1.3125 0.125 0
1.25 0.1875 0
1.3125 0.1875 0
1.3125 0.125 0
1.375 0.125 0
1.3125 0.1875 0
1.375 0.1875 0
1.25 0.1875 0
1.3125 0.1875 0
1.25 0.25 0
1.3125 0.25 0
1.3125 0.1875 0
1.375 0.1875 0
1.3125 0.25 0
1.375 0.25 0
1.375 0.125 0
1.4375 0.125 0
1.375 0.1875 0
1.4375 0.1875 0
1.4375 0.125 0
1.5 0.125 0
1.4375 0.1875 0
1.5 0.1875 0
1.375 0.1875 0
1.4375 0.1875 0
1.375 0.25 0
1.4375 0.25 0
1.4375 0.1875 0
1.5 0.1875 0
1.4375 0.25 0
1.5 0.25 0
1 0.25 0
1.0625 0.25 0
1 0.3125 0
1.0625 0.3125 0
1.0625 0.25 0
1.125 0.25 0
1.0625 0.3125 0
1.125 0.3125 0
1 0.3125 0
1.0625 0.3125 0
1 0.375 0
1.0625 0.375 0
1.0625 0.3125 0
1.125 0.3125 0
1.0625 0.375 0
1.125 0.375 0
1.125 0.25 0
1.1875 0.25 0
1.125 0.3125 0
1.1875 0.3125 0
1.1875 0.25 0
1.25 0.25 0
1.1875 0.3125 0
1.25 0.3125 0
1.125 0.3125 0
1.1875 0.3125 0
1.125 0.375 0
1.1875 0.375 0
1.1875 0.3125 0
1.25 0.3125 0
1.1875 0.375 0
1.25 0.375 0
1 0.375 0
1.0625 0.375 0
1 0.4375 0
1.0625 0.4375 0
1.0625 0.375 0
1.125 0.375 0
1.0625 0.4375 0
1.125 0.4375 0
1 0.4375 0
1.0625 0.4375 0
1 0.5 0
1.0625 0.5 0
1.0625 0.4375 0
1.125 0.4375 0
1.0625 0.5 0
1.125 0.5 0
1.125 0.375 0
1.1875 0.375 0
1.125 0.4375 0
1.1875 0.4375 0
1.1875 0.375 0
1.25 0.375 0
1.1875 0.4375 0
1.25 0.4375 0
1.125 0.4375 0
1.1875 0.4375 0
1.125 0.5 0
1.1875 0.5 0
1.1875 0.4375 0
1.25 0.4375 0
1.1875 0.5 0
1.25 0.5 0
[...]
POINT_DATA 2048
SCALARS density double 1
LOOKUP_TABLE default
0.998239 0.998239 0.998239 0.998239 0.998727 0.998727 0.998727 0.998727 0.900369 0.900369 0.900369 0.900369 0.899382 0.899382 0.899382 0.899382 0.998849 0.998849 0.998849 0.998849 0.998851 0.998851 0.998851 0.998851 0.904589 0.904589 0.904589 0.904589 0.906872 0.906872 0.906872 0.906872 0.664974 0.664974 0.664974 0.664974 0.663413 0.663413 0.663413 0.663413 0.334696 0.334696 0.334696 0.334696 0.336347 0.336347 0.336347 0.336347 0.665917 0.665917 0.665917 0.665917 0.678641 0.678641 0.678641 0.678641 0.334334 0.334334 0.334334 0.334334 0.352561 0.352561 0.352561 0.352561 0.998851 0.998851 0.998851 0.998851 0.999345 0.999345 0.999345 0.999345 0.922104 0.922104 0.922104 0.922104 0.952605 0.952605 0.952605 0.952605 0.995086 0.995086 0.995086 0.995086 0.971283 0.971283 0.971283 0.971283 0.961874 0.961874 0.961874 0.961874 0.93513 0.93513 0.93513 0.93513 0.723018 0.723018 0.723018 0.723018 0.80224 0.80224 0.80224 0.80224 0.418522 0.418522 0.418522 0.418522 0.549966 0.549966 0.549966 0.549966 0.867826 0.867826 0.867826 0.867826 0.880531 0.880531 0.880531 0.880531 0.695583 0.695583 0.695583 0.695583 0.784864 0.784864 0.784864 0.784864 0.0923476 0.0923476 0.0923476 0.0923476 0.0932505 0.0932505 0.0932505 0.0932505 0.00132399 0.00132399 0.00132399 0.00132399 0.000953855 0.000953855 0.000953855 0.000953855 0.0889426 0.0889426 0.0889426 0.0889426 0.101604 0.101604 0.101604 0.101604 0.00086772 0.00086772 0.00086772 0.00086772 0.00296564 0.00296564 0.00296564 0.00296564 0 0 0 0 0 0 0 0 0 0 0 0 0 0 0 0 0 0 0 0 0 0 0 0 0 0 0 0 0 0 0 0 0.1573 0.1573 0.1573 0.1573 0.288294 0.288294 0.288294 0.288294 0.0260137 0.0260137 0.0260137 0.0260137 0.108861 0.108861 0.108861 0.108861 0.478476 0.478476 0.478476 0.478476 0.655209 0.655209 0.655209 0.655209 0.275977 0.275977 0.275977 0.275977 0.487431 0.487431 0.487431 0.487431 0.00141252 0.00141252 0.00141252 0.00141252 0.0253544 0.0253544 0.0253544 0.0253544 0 0 0 0 0.00200873 0.00200873 0.00200873 0.00200873 0.125377 0.125377 0.125377 0.125377 0.293186 0.293186 0.293186 0.293186 0.0423665 0.0423665 0.0423665 0.0423665 0.154029 0.154029 0.154029 0.154029 0.947343 0.947343 0.947343 0.947343 0.926748 0.926748 0.926748 0.926748 0.878161 0.878161 0.878161 0.878161 0.808123 0.808123 0.808123 0.808123 0.915346 0.915346 0.915346 0.915346 0.909935 0.909935 0.909935 0.909935 0.752392 0.752392 0.752392 0.752392 0.724741 0.724741 0.724741 0.724741 0.796396 0.796396 0.796396 0.796396 0.667926 0.667926 0.667926 0.667926 0.745493 0.745493 0.745493 0.745493 0.585712 0.585712 0.585712 0.585712 0.539484 0.539484 0.539484 0.539484 0.470208 0.470208 0.470208 0.470208 0.392608 0.392608 0.392608 0.392608 0.273448 0.273448 0.273448 0.273448 0.916136 0.916136 0.916136 0.916136 0.926892 0.926892 0.926892 0.926892 0.734077 0.734077 0.734077 0.734077 0.779949 0.779949 0.779949 0.779949 0.940898 0.940898 0.940898 0.940898 0.947201 0.947201 0.947201 0.947201 0.826012 0.826012 0.826012 0.826012 0.851659 0.851659 0.851659 0.851659 0.486784 0.486784 0.486784 0.486784 0.583385 0.583385 0.583385 0.583385 0.298712 0.298712 0.298712 0.298712 0.438947 0.438947 0.438947 0.438947 0.673095 0.673095 0.673095 0.673095 0.70197 0.70197 0.70197 0.70197 0.553042 0.553042 0.553042 0.553042 0.55263 0.55263 0.55263 0.55263 0.717056 0.717056 0.717056 0.717056 0.619668 0.619668 0.619668 0.619668 0.642555 0.642555 0.642555 0.642555 0.666853 0.666853 0.666853 0.666853 0.434631 0.434631 0.434631 0.434631 0.303842 0.303842 0.303842 0.303842 0.581783 0.581783 0.581783 0.581783 0.504058 0.504058 0.504058 0.504058 0.47771 0.47771 0.47771 0.47771 0.606956 0.606956 0.606956 0.606956 0.331335 0.331335 0.331335 0.331335 0.517603 0.517603 0.517603 0.517603 0.664381 0.664381 0.664381 0.664381 0.676921 0.676921 0.676921 0.676921 0.663709 0.663709 0.663709 0.663709 0.746223 0.746223 0.746223 0.746223 0.329872 0.329872 0.329872 0.329872 0.454435 0.454435 0.454435 0.454435 0.512269 0.512269 0.512269 0.512269 0.554785 0.554785 0.554785 0.554785 0.521113 0.521113 0.521113 0.521113 0.448066 0.448066 0.448066 0.448066 0.517853 0.517853 0.517853 0.517853 0.364391 0.364391 0.364391 0.364391 0.669591 0.669591 0.669591 0.669591 0.60726 0.60726 0.60726 0.60726 0.733659 0.733659 0.733659 0.733659 0.600554 0.600554 0.600554 0.600554 0.457982 0.457982 0.457982 0.457982 0.254757 0.254757 0.254757 0.254757 0.382209 0.382209 0.382209 0.382209 0.167427 0.167427 0.167427 0.167427 0.916948 0.916948 0.916948 0.916948 0.844343 0.844343 0.844343 0.844343 0.844401 0.844401 0.844401 0.844401 0.828236 0.828236 0.828236 0.828236 0.70405 0.70405 0.70405 0.70405 0.516511 0.516511 0.516511 0.516511 0.784517 0.784517 0.784517 0.784517 0.685167 0.685167 0.685167 0.685167 0.701663 0.701663 0.701663 0.701663 0.720705 0.720705 0.720705 0.720705 0.500213 0.500213 0.500213 0.500213 0.493629 0.493629 0.493629 0.493629 0.759356 0.759356 0.759356 0.759356 0.76534 0.76534 0.76534 0.76534 0.572563 0.572563 0.572563 0.572563 0.665009 0.665009 0.665009 0.665009 0.330664 0.330664 0.330664 0.330664 0.197418 0.197418 0.197418 0.197418 0.547519 0.547519 0.547519 0.547519 0.411113 0.411113 0.411113 0.411113 0.101357 0.101357 0.101357 0.101357 0.0393927 0.0393927 0.0393927 0.0393927 0.286283 0.286283 0.286283 0.286283 0.183663 0.183663 0.183663 0.183663 0.734784 0.734784 0.734784 0.734784 0.660475 0.660475 0.660475 0.660475 0.734098 0.734098 0.734098 0.734098 0.763847 0.763847 0.763847 0.763847 0.559443 0.559443 0.559443 0.559443 0.430894 0.430894 0.430894 0.430894 0.761438 0.761438 0.761438 0.761438 0.702987 0.702987 0.702987 0.702987 0.312205 0.312205 0.312205 0.312205 0.246584 0.246584 0.246584 0.246584 0.180849 0.180849 0.180849 0.180849 0.0807068 0.0807068 0.0807068 0.0807068 0.287073 0.287073 0.287073 0.287073 0.384574 0.384574 0.384574 0.384574 0.0808625 0.0808625 0.0808625 0.0808625 0.135723 0.135723 0.135723 0.135723 0.092187 0.092187 0.092187 0.092187 0.0163338 0.0163338 0.0163338 0.0163338 0.0387943 0.0387943 0.0387943 0.0387943 0.0042199 0.0042199 0.0042199 0.0042199 0.00269322 0.00269322 0.00269322 0.00269322 0.0152529 0.0152529 0.0152529 0.0152529 0 0 0 0 0 0 0 0 0.498028 0.498028 0.498028 0.498028 0.620106 0.620106 0.620106 0.620106 0.215486 0.215486 0.215486 0.215486 0.329706 0.329706 0.329706 0.329706 0.719824 0.719824 0.719824 0.719824 0.76616 0.76616 0.76616 0.76616 0.458424 0.458424 0.458424 0.458424 0.58314 0.58314 0.58314 0.58314 0.0484887 0.0484887 0.0484887 0.0484887 0.109294 0.109294 0.109294 0.109294 0.0013299 0.0013299 0.0013299 0.0013299 0.0103105 0.0103105 0.0103105 0.0103105 0.188855 0.188855 0.188855 0.188855 0.28707 0.28707 0.28707 0.28707 0.0362533 0.0362533 0.0362533 0.0362533 0.0854987 0.0854987 0.0854987 0.0854987 0.00634 0.00634 0.00634 0.00634 0.000366473 0.000366473 0.000366473 0.000366473 0.0994731 0.0994731 0.0994731 0.0994731 0.0415073 0.0415073 0.0415073 0.0415073 0 0 0 0 0 0 0 0 0.0129333 0.0129333 0.0129333 0.0129333 0.00221257 0.00221257 0.00221257 0.00221257 0.304343 0.304343 0.304343 0.304343 0.198041 0.198041 0.198041 0.198041 0.597827 0.597827 0.597827 0.597827 0.480288 0.480288 0.480288 0.480288 0.127356 0.127356 0.127356 0.127356 0.0691911 0.0691911 0.0691911 0.0691911 0.369998 0.369998 0.369998 0.369998 0.260522 0.260522 0.260522 0.260522 0 0 0 0 0 0 0 0 0 0 0 0 0 0 0 0 0 0 0 0 0 0 0 0 0 0 0 0 0 0 0 0 0.027977 0.027977 0.027977 0.027977 0.00446299 0.00446299 0.00446299 0.00446299 0.15992 0.15992 0.15992 0.15992 0.0725125 0.0725125 0.0725125 0.0725125 0 0 0 0 0 0 0 0 0.0209349 0.0209349 0.0209349 0.0209349 0.00459782 0.00459782 0.00459782 0.00459782 0.763149 0.763149 0.763149 0.763149 0.733564 0.733564 0.733564 0.733564 0.680889 0.680889 0.680889 0.680889 0.749653 0.749653 0.749653 0.749653 0.660952 0.660952 0.660952 0.660952 0.550365 0.550365 0.550365 0.550365 0.775558 0.775558 0.775558 0.775558 0.748825 0.748825 0.748825 0.748825 0.401119 0.401119 0.401119 0.401119 0.524821 0.524821 0.524821 0.524821 0.168495 0.168495 0.168495 0.168495 0.292457 0.292457 0.292457 0.292457 0.64521 0.64521 0.64521 0.64521 0.735693 0.735693 0.735693 0.735693 0.449819 0.449819 0.449819 0.449819 0.619836 0.619836 0.619836 0.619836 0.400786 0.400786 0.400786 0.400786 0.256302 0.256302 0.256302 0.256302 0.654434 0.654434 0.654434 0.654434 0.527041 0.527041 0.527041 0.527041 0.160396 0.160396 0.160396 0.160396 0.113194 0.113194 0.113194 0.113194 0.426183 0.426183 0.426183 0.426183 0.366749 0.366749 0.366749 0.366749 0.770193 0.770193 0.770193 0.770193 0.755663 0.755663 0.755663 0.755663 0.771088 0.771088 0.771088 0.771088 0.871839 0.871839 0.871839 0.871839 0.720089 0.720089 0.720089 0.720089 0.68615 0.68615 0.68615 0.68615 0.904383 0.904383 0.904383 0.904383 0.909213 0.909213 0.909213 0.909213 0 0 0 0 0 0 0 0 0 0 0 0 0 0 0 0 0 0 0 0 0 0 0 0 0 0 0 0 0 0 0 0 0.00132399 0.00132399 0.00132399 0.00132399 0.000953855 0.000953855 0.000953855 0.000953855 0.0923476 0.0923476 0.0923476 0.0923476 0.0932505 0.0932505 0.0932505 0.0932505 0.00086772 0.00086772 0.00086772 0.00086772 0.00296564 0.00296564 0.00296564 0.00296564 0.0889426 0.0889426 0.0889426 0.0889426 0.101604 0.101604 0.101604 0.101604 0 0 0 0 0.00200873 0.00200873 0.00200873 0.00200873 0.00141252 0.00141252 0.00141252 0.00141252 0.0253544 0.0253544 0.0253544 0.0253544 0.0423665 0.0423665 0.0423665 0.0423665 0.154029 0.154029 0.154029 0.154029 0.125377 0.125377 0.125377 0.125377 0.293186 0.293186 0.293186 0.293186 0.0260137 0.0260137 0.0260137 0.0260137 0.108861 0.108861 0.108861 0.108861 0.1573 0.1573 0.1573 0.1573 0.288294 0.288294 0.288294 0.288294 0.275977 0.275977 0.275977 0.275977 0.487431 0.487431 0.487431 0.487431 0.478476 0.478476 0.478476 0.478476 0.655209 0.655209 0.655209 0.655209 0.334696 0.334696 0.334696 0.334696 0.336347 0.336347 0.336347 0.336347 0.664974 0.664974 0.664974 0.664974 0.663413 0.663413 0.663413 0.663413 0.334334 0.334334 0.334334 0.334334 0.352561 0.352561 0.352561 0.352561 0.665917 0.665917 0.665917 0.665917 0.678641 0.678641 0.678641 0.678641 0.900369 0.900369 0.900369 0.900369 0.899382 0.899382 0.899382 0.899382 0.998239 0.998239 0.998239 0.998239 0.998727 0.998727 0.998727 0.998727 0.904589 0.904589 0.904589 0.904589 0.906872 0.906872 0.906872 0.906872 0.998849 0.998849 0.998849 0.998849 0.998851 0.998851 0.998851 0.998851 0.418522 0.418522 0.418522 0.418522 0.549966 0.549966 0.549966 0.549966 0.723018 0.723018 0.723018 0.723018 0.80224 0.80224 0.80224 0.80224 0.695583 0.695583 0.695583 0.695583 0.784864 0.784864 0.784864 0.784864 0.867826 0.867826 0.867826 0.867826 0.880531 0.880531 0.880531 0.880531 0.922104 0.922104 0.922104 0.922104 0.952605 0.952605 0.952605 0.952605 0.998851 0.998851 0.998851 0.998851 0.999345 0.999345 0.999345 0.999345 0.961874 0.961874 0.961874 0.961874 0.93513 0.93513 0.93513 0.93513 0.995086 0.995086 0.995086 0.995086 0.971283 0.971283 0.971283 0.971283 0.331335 0.331335 0.331335 0.331335 0.517603 0.517603 0.517603 0.517603 0.47771 0.47771 0.47771 0.47771 0.606956 0.606956 0.606956 0.606956 0.663709 0.663709 0.663709 0.663709 0.746223 0.746223 0.746223 0.746223 0.664381 0.664381 0.664381 0.664381 0.676921 0.676921 0.676921 0.676921 0.642555 0.642555 0.642555 0.642555 0.666853 0.666853 0.666853 0.666853 0.717056 0.717056 0.717056 0.717056 0.619668 0.619668 0.619668 0.619668 0.581783 0.581783 0.581783 0.581783 0.504058 0.504058 0.504058 0.504058 0.434631 0.434631 0.434631 0.434631 0.303842 0.303842 0.303842 0.303842 0.733659 0.733659 0.733659 0.733659 0.600554 0.600554 0.600554 0.600554 0.669591 0.669591 0.669591 0.669591 0.60726 0.60726 0.60726 0.60726 0.382209 0.382209 0.382209 0.382209 0.167427 0.167427 0.167427 0.167427 0.457982 0.457982 0.457982 0.457982 0.254757 0.254757 0.254757 0.254757 0.512269 0.512269 0.512269 0.512269 0.554785 0.554785 0.554785 0.554785 0.329872 0.329872 0.329872 0.329872 0.454435 0.454435 0.454435 0.454435 0.517853 0.517853 0.517853 0.517853 0.364391 0.364391 0.364391 0.364391 0.521113 0.521113 0.521113 0.521113 0.448066 0.448066 0.448066 0.448066 0.745493 0.745493 0.745493 0.745493 0.585712 0.585712 0.585712 0.585712 0.796396 0.796396 0.796396 0.796396 0.667926 0.667926 0.667926 0.667926 0.392608 0.392608 0.392608 0.392608 0.273448 0.273448 0.273448 0.273448 0.539484 0.539484 0.539484 0.539484 0.470208 0.470208 0.470208 0.470208 0.878161 0.878161 0.878161 0.878161 0.808123 0.808123 0.808123 0.808123 0.947343 0.947343 0.947343 0.947343 0.926748 0.926748 0.926748 0.926748 0.752392 0.752392 0.752392 0.752392 0.724741 0.724741 0.724741 0.724741 0.915346 0.915346 0.915346 0.915346 0.909935 0.909935 0.909935 0.909935 0.298712 0.298712 0.298712 0.298712 0.438947 0.438947 0.438947 0.438947 0.486784 0.486784 0.486784 0.486784 0.583385 0.583385 0.583385 0.583385 0.553042 0.553042 0.553042 0.553042 0.55263 0.55263 0.55263 0.55263 0.673095 0.673095 0.673095 0.673095 0.70197 0.70197 0.70197 0.70197 0.734077 0.734077 0.734077 0.734077 0.779949 0.779949 0.779949 0.779949 0.916136 0.916136 0.916136 0.916136 0.926892 0.926892 0.926892 0.926892 0.826012 0.826012 0.826012 0.826012 0.851659 0.851659 0.851659 0.851659 0.940898 0.940898 0.940898 0.940898 0.947201 0.947201 0.947201 0.947201 0.0387943 0.0387943 0.0387943 0.0387943 0.0042199 0.0042199 0.0042199 0.0042199 0.092187 0.092187 0.092187 0.092187 0.0163338 0.0163338 0.0163338 0.0163338 0 0 0 0 0 0 0 0 0.00269322 0.00269322 0.00269322 0.00269322 0.0152529 0.0152529 0.0152529 0.0152529 0.180849 0.180849 0.180849 0.180849 0.0807068 0.0807068 0.0807068 0.0807068 0.312205 0.312205 0.312205 0.312205 0.246584 0.246584 0.246584 0.246584 0.0808625 0.0808625 0.0808625 0.0808625 0.135723 0.135723 0.135723 0.135723 0.287073 0.287073 0.287073 0.287073 0.384574 0.384574 0.384574 0.384574 0.0013299 0.0013299 0.0013299 0.0013299 0.0103105 0.0103105 0.0103105 0.0103105 0.0484887 0.0484887 0.0484887 0.0484887 0.109294 0.109294 0.109294 0.109294 0.0362533 0.0362533 0.0362533 0.0362533 0.0854987 0.0854987 0.0854987 0.0854987 0.188855 0.188855 0.188855 0.188855 0.28707 0.28707 0.28707 0.28707 0.215486 0.215486 0.215486 0.215486 0.329706 0.329706 0.329706 0.329706 0.498028 0.498028 0.498028 0.498028 0.620106 0.620106 0.620106 0.620106 0.458424 0.458424 0.458424 0.458424 0.58314 0.58314 0.58314 0.58314 0.719824 0.719824 0.719824 0.719824 0.76616 0.76616 0.76616 0.76616 0.500213 0.500213 0.500213 0.500213 0.493629 0.493629 0.493629 0.493629 0.701663 0.701663 0.701663 0.701663 0.720705 0.720705 0.720705 0.720705 0.572563 0.572563 0.572563 0.572563 0.665009 0.665009 0.665009 0.665009 0.759356 0.759356 0.759356 0.759356 0.76534 0.76534 0.76534 0.76534 0.844401 0.844401 0.844401 0.844401 0.828236 0.828236 0.828236 0.828236 0.916948 0.916948 0.916948 0.916948 0.844343 0.844343 0.844343 0.844343 0.784517 0.784517 0.784517 0.784517 0.685167 0.685167 0.685167 0.685167 0.70405 0.70405 0.70405 0.70405 0.516511 0.516511 0.516511 0.516511 0.734098 0.734098 0.734098 0.734098 0.763847 0.763847 0.763847 0.763847 0.734784 0.734784 0.734784 0.734784 0.660475 0.660475 0.660475 0.660475 0.761438 0.761438 0.761438 0.761438 0.702987 0.702987 0.702987 0.702987 0.559443 0.559443 0.559443 0.559443 0.430894 0.430894 0.430894 0.430894 0.547519 0.547519 0.547519 0.547519 0.411113 0.411113 0.411113 0.411113 0.330664 0.330664 0.330664 0.330664 0.197418 0.197418 0.197418 0.197418 0.286283 0.286283 0.286283 0.286283 0.183663 0.183663 0.183663 0.183663 0.101357 0.101357 0.101357 0.101357 0.0393927 0.0393927 0.0393927 0.0393927 0.168495 0.168495 0.168495 0.168495 0.292457 0.292457 0.292457 0.292457 0.401119 0.401119 0.401119 0.401119 0.524821 0.524821 0.524821 0.524821 0.449819 0.449819 0.449819 0.449819 0.619836 0.619836 0.619836 0.619836 0.64521 0.64521 0.64521 0.64521 0.735693 0.735693 0.735693 0.735693 0.680889 0.680889 0.680889 0.680889 0.749653 0.749653 0.749653 0.749653 0.763149 0.763149 0.763149 0.763149 0.733564 0.733564 0.733564 0.733564 0.775558 0.775558 0.775558 0.775558 0.748825 0.748825 0.748825 0.748825 0.660952 0.660952 0.660952 0.660952 0.550365 0.550365 0.550365 0.550365 0.771088 0.771088 0.771088 0.771088 0.871839 0.871839 0.871839 0.871839 0.770193 0.770193 0.770193 0.770193 0.755663 0.755663 0.755663 0.755663 0.904383 0.904383 0.904383 0.904383 0.909213 0.909213 0.909213 0.909213 0.720089 0.720089 0.720089 0.720089 0.68615 0.68615 0.68615 0.68615 0.654434 0.654434 0.654434 0.654434 0.527041 0.527041 0.527041 0.527041 0.400786 0.400786 0.400786 0.400786 0.256302 0.256302 0.256302 0.256302 0.426183 0.426183 0.426183 0.426183 0.366749 0.366749 0.366749 0.366749 0.160396 0.160396 0.160396 0.160396 0.113194 0.113194 0.113194 0.113194 0.597827 0.597827 0.597827 0.597827 0.480288 0.480288 0.480288 0.480288 0.304343 0.304343 0.304343 0.304343 0.198041 0.198041 0.198041 0.198041 0.369998 0.369998 0.369998 0.369998 0.260522 0.260522 0.260522 0.260522 0.127356 0.127356 0.127356 0.127356 0.0691911 0.0691911 0.0691911 0.0691911 0.0994731 0.0994731 0.0994731 0.0994731 0.0415073 0.0415073 0.0415073 0.0415073 0.00634 0.00634 0.00634 0.00634 0.000366473 0.000366473 0.000366473 0.000366473 0.0129333 0.0129333 0.0129333 0.0129333 0.00221257 0.00221257 0.00221257 0.00221257 0 0 0 0 0 0 0 0 0.15992 0.15992 0.15992 0.15992 0.0725125 0.0725125 0.0725125 0.0725125 0.027977 0.027977 0.027977 0.027977 0.00446299 0.00446299 0.00446299 0.00446299 0.0209349 0.0209349 0.0209349 0.0209349 0.00459782 0.00459782 0.00459782 0.00459782 0 0 0 0 0 0 0 0 0 0 0 0 0 0 0 0 0 0 0 0 0 0 0 0 0 0 0 0 0 0 0 0 0 0 0 0 0 0 0 0 
