# vtk DataFile Version 3.0
#This file was generated by the deal.II library on 2016/3/9 at 8:35:55
ASCII
DATASET UNSTRUCTURED_GRID

POINTS 128 double
0 0 0
0.25 0 0
0 0.25 0
0.25 0.25 0
0.25 0 0
0.5 0 0
0.25 0.25 0
0.5 0.25 0
0 0.25 0
0.25 0.25 0
0 0.5 0
0.25 0.5 0
0.25 0.25 0
0.5 0.25 0
0.25 0.5 0
0.5 0.5 0
0.5 0 0
0.75 0 0
0.5 0.25 0
0.75 0.25 0
0.75 0 0
1 0 0
0.75 0.25 0
1 0.25 0
0.5 0.25 0
0.75 0.25 0
0.5 0.5 0
0.75 0.5 0
0.75 0.25 0
1 0.25 0
0.75 0.5 0
1 0.5 0
1 0 0
1.25 0 0
1 0.25 0
1.25 0.25 0
1.25 0 0
1.5 0 0
1.25 0.25 0
1.5 0.25 0
1 0.25 0
1.25 0.25 0
1 0.5 0
1.25 0.5 0
1.25 0.25 0
1.5 0.25 0
1.25 0.5 0
1.5 0.5 0
1.5 0 0
1.75 0 0
1.5 0.25 0
1.75 0.25 0
1.75 0 0
2 0 0
1.75 0.25 0
2 0.25 0
1.5 0.25 0
1.75 0.25 0
1.5 0.5 0
1.75 0.5 0
1.75 0.25 0
2 0.25 0
1.75 0.5 0
2 0.5 0
0 0.5 0
0.25 0.5 0
0 0.75 0
0.25 0.75 0
0.25 0.5 0
0.5 0.5 0
0.25 0.75 0
0.5 0.75 0
0 0.75 0
0.25 0.75 0
0 1 0
0.25 1 0
0.25 0.75 0
0.5 0.75 0
0.25 1 0
0.5 1 0
0.5 0.5 0
0.75 0.5 0
0.5 0.75 0
0.75 0.75 0
0.75 0.5 0
1 0.5 0
0.75 0.75 0
1 0.75 0
0.5 0.75 0
0.75 0.75 0
0.5 1 0
0.75 1 0
0.75 0.75 0
1 0.75 0
0.75 1 0
1 1 0
1 0.5 0
1.25 0.5 0
1 0.75 0
1.25 0.75 0
1.25 0.5 0
1.5 0.5 0
1.25 0.75 0
1.5 0.75 0
1 0.75 0
1.25 0.75 0
1 1 0
1.25 1 0
1.25 0.75 0
1.5 0.75 0
1.25 1 0
1.5 1 0
1.5 0.5 0
1.75 0.5 0
1.5 0.75 0
1.75 0.75 0
1.75 0.5 0
2 0.5 0
1.75 0.75 0
2 0.75 0
1.5 0.75 0
1.75 0.75 0
1.5 1 0
1.75 1 0
1.75 0.75 0
2 0.75 0
1.75 1 0
2 1 0

CELLS 32 160
4	0	1	3	2
4	4	5	7	6
4	8	9	11	10
4	12	13	15	14
4	16	17	19	18
4	20	21	23	22
4	24	25	27	26
4	28	29	31	30
4	32	33	35	34
4	36	37	39	38
4	40	41	43	42
4	44	45	47	46
4	48	49	51	50
4	52	53	55	54
4	56	57	59	58
4	60	61	63	62
4	64	65	67	66
4	68	69	71	70
4	72	73	75	74
4	76	77	79	78
4	80	81	83	82
4	84	85	87	86
4	88	89	91	90
4	92	93	95	94
4	96	97	99	98
4	100	101	103	102
4	104	105	107	106
4	108	109	111	110
4	112	113	115	114
4	116	117	119	118
4	120	121	123	122
4	124	125	127	126

CELL_TYPES 32
 9 9 9 9 9 9 9 9 9 9 9 9 9 9 9 9 9 9 9 9 9 9 9 9 9 9 9 9 9 9 9 9
POINT_DATA 128
SCALARS density double 1
LOOKUP_TABLE default
0.642927 0.642927 0.642927 0.642927 0.66277 0.66277 0.66277 0.66277 0.282354 0.282354 0.282354 0.282354 0.314417 0.314417 0.314417 0.314417 0.688282 0.688282 0.688282 0.688282 0.655796 0.655796 0.655796 0.655796 0.352607 0.352607 0.352607 0.352607 0.332051 0.332051 0.332051 0.332051 0.595869 0.595869 0.595869 0.595869 0.491796 0.491796 0.491796 0.491796 0.327803 0.327803 0.327803 0.327803 0.384107 0.384107 0.384107 0.384107 0.33781 0.33781 0.33781 0.33781 0.252706 0.252706 0.252706 0.252706 0.423858 0.423858 0.423858 0.423858 0.453728 0.453728 0.453728 0.453728 0.282354 0.282354 0.282354 0.282354 0.314417 0.314417 0.314417 0.314417 0.642927 0.642927 0.642927 0.642927 0.66277 0.66277 0.66277 0.66277 0.352607 0.352607 0.352607 0.352607 0.332051 0.332051 0.332051 0.332051 0.688282 0.688282 0.688282 0.688282 0.655796 0.655796 0.655796 0.655796 0.327803 0.327803 0.327803 0.327803 0.384107 0.384107 0.384107 0.384107 0.595869 0.595869 0.595869 0.595869 0.491796 0.491796 0.491796 0.491796 0.423858 0.423858 0.423858 0.423858 0.453728 0.453728 0.453728 0.453728 0.33781 0.33781 0.33781 0.33781 0.252706 0.252706 0.252706 0.252706 
