# vtk DataFile Version 3.0
#This file was generated by the deal.II library on 2016/3/9 at 8:36:04
ASCII
DATASET UNSTRUCTURED_GRID

POINTS 2048 double
0 0 0
0.0625 0 0
0 0.0625 0
0.0625 0.0625 0
0.0625 0 0
0.125 0 0
0.0625 0.0625 0
0.125 0.0625 0
0 0.0625 0
0.0625 0.0625 0
0 0.125 0
0.0625 0.125 0
0.0625 0.0625 0
0.125 0.0625 0
0.0625 0.125 0
0.125 0.125 0
0.125 0 0
0.1875 0 0
0.125 0.0625 0
0.1875 0.0625 0
0.1875 0 0
0.25 0 0
0.1875 0.0625 0
0.25 0.0625 0
0.125 0.0625 0
0.1875 0.0625 0
0.125 0.125 0
0.1875 0.125 0
0.1875 0.0625 0
0.25 0.0625 0
0.1875 0.125 0
0.25 0.125 0
0 0.125 0
0.0625 0.125 0
0 0.1875 0
0.0625 0.1875 0
0.0625 0.125 0
0.125 0.125 0
0.0625 0.1875 0
0.125 0.1875 0
0 0.1875 0
0.0625 0.1875 0
0 0.25 0
0.0625 0.25 0
0.0625 0.1875 0
0.125 0.1875 0
0.0625 0.25 0
0.125 0.25 0
0.125 0.125 0
0.1875 0.125 0
0.125 0.1875 0
0.1875 0.1875 0
0.1875 0.125 0
0.25 0.125 0
0.1875 0.1875 0
0.25 0.1875 0
0.125 0.1875 0
0.1875 0.1875 0
0.125 0.25 0
0.1875 0.25 0
0.1875 0.1875 0
0.25 0.1875 0
0.1875 0.25 0
0.25 0.25 0
0.25 0 0
0.3125 0 0
0.25 0.0625 0
0.3125 0.0625 0
0.3125 0 0
0.375 0 0
0.3125 0.0625 0
0.375 0.0625 0
0.25 0.0625 0
0.3125 0.0625 0
0.25 0.125 0
0.3125 0.125 0
0.3125 0.0625 0
0.375 0.0625 0
0.3125 0.125 0
0.375 0.125 0
0.375 0 0
0.4375 0 0
0.375 0.0625 0
0.4375 0.0625 0
0.4375 0 0
0.5 0 0
0.4375 0.0625 0
0.5 0.0625 0
0.375 0.0625 0
0.4375 0.0625 0
0.375 0.125 0
0.4375 0.125 0
0.4375 0.0625 0
0.5 0.0625 0
0.4375 0.125 0
0.5 0.125 0
0.25 0.125 0
0.3125 0.125 0
0.25 0.1875 0
0.3125 0.1875 0
0.3125 0.125 0
0.375 0.125 0
0.3125 0.1875 0
0.375 0.1875 0
0.25 0.1875 0
0.3125 0.1875 0
0.25 0.25 0
0.3125 0.25 0
0.3125 0.1875 0
0.375 0.1875 0
0.3125 0.25 0
0.375 0.25 0
0.375 0.125 0
0.4375 0.125 0
0.375 0.1875 0
0.4375 0.1875 0
0.4375 0.125 0
0.5 0.125 0
0.4375 0.1875 0
0.5 0.1875 0
0.375 0.1875 0
0.4375 0.1875 0
0.375 0.25 0
0.4375 0.25 0
0.4375 0.1875 0
0.5 0.1875 0
0.4375 0.25 0
0.5 0.25 0
0 0.25 0
0.0625 0.25 0
0 0.3125 0
0.0625 0.3125 0
0.0625 0.25 0
0.125 0.25 0
0.0625 0.3125 0
0.125 0.3125 0
0 0.3125 0
0.0625 0.3125 0
0 0.375 0
0.0625 0.375 0
0.0625 0.3125 0
0.125 0.3125 0
0.0625 0.375 0
0.125 0.375 0
0.125 0.25 0
0.1875 0.25 0
0.125 0.3125 0
0.1875 0.3125 0
0.1875 0.25 0
0.25 0.25 0
0.1875 0.3125 0
0.25 0.3125 0
0.125 0.3125 0
0.1875 0.3125 0
0.125 0.375 0
0.1875 0.375 0
0.1875 0.3125 0
0.25 0.3125 0
0.1875 0.375 0
0.25 0.375 0
0 0.375 0
0.0625 0.375 0
0 0.4375 0
0.0625 0.4375 0
0.0625 0.375 0
0.125 0.375 0
0.0625 0.4375 0
0.125 0.4375 0
0 0.4375 0
0.0625 0.4375 0
0 0.5 0
0.0625 0.5 0
0.0625 0.4375 0
0.125 0.4375 0
0.0625 0.5 0
0.125 0.5 0
0.125 0.375 0
0.1875 0.375 0
0.125 0.4375 0
0.1875 0.4375 0
0.1875 0.375 0
0.25 0.375 0
0.1875 0.4375 0
0.25 0.4375 0
0.125 0.4375 0
0.1875 0.4375 0
0.125 0.5 0
0.1875 0.5 0
0.1875 0.4375 0
0.25 0.4375 0
0.1875 0.5 0
0.25 0.5 0
0.25 0.25 0
0.3125 0.25 0
0.25 0.3125 0
0.3125 0.3125 0
0.3125 0.25 0
0.375 0.25 0
0.3125 0.3125 0
0.375 0.3125 0
0.25 0.3125 0
0.3125 0.3125 0
0.25 0.375 0
0.3125 0.375 0
0.3125 0.3125 0
0.375 0.3125 0
0.3125 0.375 0
0.375 0.375 0
0.375 0.25 0
0.4375 0.25 0
0.375 0.3125 0
0.4375 0.3125 0
0.4375 0.25 0
0.5 0.25 0
0.4375 0.3125 0
0.5 0.3125 0
0.375 0.3125 0
0.4375 0.3125 0
0.375 0.375 0
0.4375 0.375 0
0.4375 0.3125 0
0.5 0.3125 0
0.4375 0.375 0
0.5 0.375 0
0.25 0.375 0
0.3125 0.375 0
0.25 0.4375 0
0.3125 0.4375 0
0.3125 0.375 0
0.375 0.375 0
0.3125 0.4375 0
0.375 0.4375 0
0.25 0.4375 0
0.3125 0.4375 0
0.25 0.5 0
0.3125 0.5 0
0.3125 0.4375 0
0.375 0.4375 0
0.3125 0.5 0
0.375 0.5 0
0.375 0.375 0
0.4375 0.375 0
0.375 0.4375 0
0.4375 0.4375 0
0.4375 0.375 0
0.5 0.375 0
0.4375 0.4375 0
0.5 0.4375 0
0.375 0.4375 0
0.4375 0.4375 0
0.375 0.5 0
0.4375 0.5 0
0.4375 0.4375 0
0.5 0.4375 0
0.4375 0.5 0
0.5 0.5 0
0.5 0 0
0.5625 0 0
0.5 0.0625 0
0.5625 0.0625 0
0.5625 0 0
0.625 0 0
0.5625 0.0625 0
0.625 0.0625 0
0.5 0.0625 0
0.5625 0.0625 0
0.5 0.125 0
0.5625 0.125 0
0.5625 0.0625 0
0.625 0.0625 0
0.5625 0.125 0
0.625 0.125 0
0.625 0 0
0.6875 0 0
0.625 0.0625 0
0.6875 0.0625 0
0.6875 0 0
0.75 0 0
0.6875 0.0625 0
0.75 0.0625 0
0.625 0.0625 0
0.6875 0.0625 0
0.625 0.125 0
0.6875 0.125 0
0.6875 0.0625 0
0.75 0.0625 0
0.6875 0.125 0
0.75 0.125 0
0.5 0.125 0
0.5625 0.125 0
0.5 0.1875 0
0.5625 0.1875 0
0.5625 0.125 0
0.625 0.125 0
0.5625 0.1875 0
0.625 0.1875 0
0.5 0.1875 0
0.5625 0.1875 0
0.5 0.25 0
0.5625 0.25 0
0.5625 0.1875 0
0.625 0.1875 0
0.5625 0.25 0
0.625 0.25 0
0.625 0.125 0
0.6875 0.125 0
0.625 0.1875 0
0.6875 0.1875 0
0.6875 0.125 0
0.75 0.125 0
0.6875 0.1875 0
0.75 0.1875 0
0.625 0.1875 0
0.6875 0.1875 0
0.625 0.25 0
0.6875 0.25 0
0.6875 0.1875 0
0.75 0.1875 0
0.6875 0.25 0
0.75 0.25 0
0.75 0 0
0.8125 0 0
0.75 0.0625 0
0.8125 0.0625 0
0.8125 0 0
0.875 0 0
0.8125 0.0625 0
0.875 0.0625 0
0.75 0.0625 0
0.8125 0.0625 0
0.75 0.125 0
0.8125 0.125 0
0.8125 0.0625 0
0.875 0.0625 0
0.8125 0.125 0
0.875 0.125 0
0.875 0 0
0.9375 0 0
0.875 0.0625 0
0.9375 0.0625 0
0.9375 0 0
1 0 0
0.9375 0.0625 0
1 0.0625 0
0.875 0.0625 0
0.9375 0.0625 0
0.875 0.125 0
0.9375 0.125 0
0.9375 0.0625 0
1 0.0625 0
0.9375 0.125 0
1 0.125 0
0.75 0.125 0
0.8125 0.125 0
0.75 0.1875 0
0.8125 0.1875 0
0.8125 0.125 0
0.875 0.125 0
0.8125 0.1875 0
0.875 0.1875 0
0.75 0.1875 0
0.8125 0.1875 0
0.75 0.25 0
0.8125 0.25 0
0.8125 0.1875 0
0.875 0.1875 0
0.8125 0.25 0
0.875 0.25 0
0.875 0.125 0
0.9375 0.125 0
0.875 0.1875 0
0.9375 0.1875 0
0.9375 0.125 0
1 0.125 0
0.9375 0.1875 0
1 0.1875 0
0.875 0.1875 0
0.9375 0.1875 0
0.875 0.25 0
0.9375 0.25 0
0.9375 0.1875 0
1 0.1875 0
0.9375 0.25 0
1 0.25 0
0.5 0.25 0
0.5625 0.25 0
0.5 0.3125 0
0.5625 0.3125 0
0.5625 0.25 0
0.625 0.25 0
0.5625 0.3125 0
0.625 0.3125 0
0.5 0.3125 0
0.5625 0.3125 0
0.5 0.375 0
0.5625 0.375 0
0.5625 0.3125 0
0.625 0.3125 0
0.5625 0.375 0
0.625 0.375 0
0.625 0.25 0
0.6875 0.25 0
0.625 0.3125 0
0.6875 0.3125 0
0.6875 0.25 0
0.75 0.25 0
0.6875 0.3125 0
0.75 0.3125 0
0.625 0.3125 0
0.6875 0.3125 0
0.625 0.375 0
0.6875 0.375 0
0.6875 0.3125 0
0.75 0.3125 0
0.6875 0.375 0
0.75 0.375 0
0.5 0.375 0
0.5625 0.375 0
0.5 0.4375 0
0.5625 0.4375 0
0.5625 0.375 0
0.625 0.375 0
0.5625 0.4375 0
0.625 0.4375 0
0.5 0.4375 0
0.5625 0.4375 0
0.5 0.5 0
0.5625 0.5 0
0.5625 0.4375 0
0.625 0.4375 0
0.5625 0.5 0
0.625 0.5 0
0.625 0.375 0
0.6875 0.375 0
0.625 0.4375 0
0.6875 0.4375 0
0.6875 0.375 0
0.75 0.375 0
0.6875 0.4375 0
0.75 0.4375 0
0.625 0.4375 0
0.6875 0.4375 0
0.625 0.5 0
0.6875 0.5 0
0.6875 0.4375 0
0.75 0.4375 0
0.6875 0.5 0
0.75 0.5 0
0.75 0.25 0
0.8125 0.25 0
0.75 0.3125 0
0.8125 0.3125 0
0.8125 0.25 0
0.875 0.25 0
0.8125 0.3125 0
0.875 0.3125 0
0.75 0.3125 0
0.8125 0.3125 0
0.75 0.375 0
0.8125 0.375 0
0.8125 0.3125 0
0.875 0.3125 0
0.8125 0.375 0
0.875 0.375 0
0.875 0.25 0
0.9375 0.25 0
0.875 0.3125 0
0.9375 0.3125 0
0.9375 0.25 0
1 0.25 0
0.9375 0.3125 0
1 0.3125 0
0.875 0.3125 0
0.9375 0.3125 0
0.875 0.375 0
0.9375 0.375 0
0.9375 0.3125 0
1 0.3125 0
0.9375 0.375 0
1 0.375 0
0.75 0.375 0
0.8125 0.375 0
0.75 0.4375 0
0.8125 0.4375 0
0.8125 0.375 0
0.875 0.375 0
0.8125 0.4375 0
0.875 0.4375 0
0.75 0.4375 0
0.8125 0.4375 0
0.75 0.5 0
0.8125 0.5 0
0.8125 0.4375 0
0.875 0.4375 0
0.8125 0.5 0
0.875 0.5 0
0.875 0.375 0
0.9375 0.375 0
0.875 0.4375 0
0.9375 0.4375 0
0.9375 0.375 0
1 0.375 0
0.9375 0.4375 0
1 0.4375 0
0.875 0.4375 0
0.9375 0.4375 0
0.875 0.5 0
0.9375 0.5 0
0.9375 0.4375 0
1 0.4375 0
0.9375 0.5 0
1 0.5 0
1 0 0
1.0625 0 0
1 0.0625 0
1.0625 0.0625 0
1.0625 0 0
1.125 0 0
1.0625 0.0625 0
1.125 0.0625 0
1 0.0625 0
1.0625 0.0625 0
1 0.125 0
1.0625 0.125 0
1.0625 0.0625 0
1.125 0.0625 0
1.0625 0.125 0
1.125 0.125 0
1.125 0 0
1.1875 0 0
1.125 0.0625 0
1.1875 0.0625 0
1.1875 0 0
1.25 0 0
1.1875 0.0625 0
1.25 0.0625 0
1.125 0.0625 0
1.1875 0.0625 0
1.125 0.125 0
1.1875 0.125 0
1.1875 0.0625 0
1.25 0.0625 0
1.1875 0.125 0
1.25 0.125 0
1 0.125 0
1.0625 0.125 0
1 0.1875 0
1.0625 0.1875 0
1.0625 0.125 0
1.125 0.125 0
1.0625 0.1875 0
1.125 0.1875 0
1 0.1875 0
1.0625 0.1875 0
1 0.25 0
1.0625 0.25 0
1.0625 0.1875 0
1.125 0.1875 0
1.0625 0.25 0
1.125 0.25 0
1.125 0.125 0
1.1875 0.125 0
1.125 0.1875 0
1.1875 0.1875 0
1.1875 0.125 0
1.25 0.125 0
1.1875 0.1875 0
1.25 0.1875 0
1.125 0.1875 0
1.1875 0.1875 0
1.125 0.25 0
1.1875 0.25 0
1.1875 0.1875 0
1.25 0.1875 0
1.1875 0.25 0
1.25 0.25 0
1.25 0 0
1.3125 0 0
1.25 0.0625 0
1.3125 0.0625 0
1.3125 0 0
1.375 0 0
1.3125 0.0625 0
1.375 0.0625 0
1.25 0.0625 0
1.3125 0.0625 0
1.25 0.125 0
1.3125 0.125 0
1.3125 0.0625 0
1.375 0.0625 0
1.3125 0.125 0
1.375 0.125 0
1.375 0 0
1.4375 0 0
1.375 0.0625 0
1.4375 0.0625 0
1.4375 0 0
1.5 0 0
1.4375 0.0625 0
1.5 0.0625 0
1.375 0.0625 0
1.4375 0.0625 0
1.375 0.125 0
1.4375 0.125 0
1.4375 0.0625 0
1.5 0.0625 0
1.4375 0.125 0
1.5 0.125 0
1.25 0.125 0
1.3125 0.125 0
1.25 0.1875 0
1.3125 0.1875 0
1.3125 0.125 0
1.375 0.125 0
1.3125 0.1875 0
1.375 0.1875 0
1.25 0.1875 0
1.3125 0.1875 0
1.25 0.25 0
1.3125 0.25 0
1.3125 0.1875 0
1.375 0.1875 0
1.3125 0.25 0
1.375 0.25 0
1.375 0.125 0
1.4375 0.125 0
1.375 0.1875 0
1.4375 0.1875 0
1.4375 0.125 0
1.5 0.125 0
1.4375 0.1875 0
1.5 0.1875 0
1.375 0.1875 0
1.4375 0.1875 0
1.375 0.25 0
1.4375 0.25 0
1.4375 0.1875 0
1.5 0.1875 0
1.4375 0.25 0
1.5 0.25 0
1 0.25 0
1.0625 0.25 0
1 0.3125 0
1.0625 0.3125 0
1.0625 0.25 0
1.125 0.25 0
1.0625 0.3125 0
1.125 0.3125 0
1 0.3125 0
1.0625 0.3125 0
1 0.375 0
1.0625 0.375 0
1.0625 0.3125 0
1.125 0.3125 0
1.0625 0.375 0
1.125 0.375 0
1.125 0.25 0
1.1875 0.25 0
1.125 0.3125 0
1.1875 0.3125 0
1.1875 0.25 0
1.25 0.25 0
1.1875 0.3125 0
1.25 0.3125 0
1.125 0.3125 0
1.1875 0.3125 0
1.125 0.375 0
1.1875 0.375 0
1.1875 0.3125 0
1.25 0.3125 0
1.1875 0.375 0
1.25 0.375 0
1 0.375 0
1.0625 0.375 0
1 0.4375 0
1.0625 0.4375 0
1.0625 0.375 0
1.125 0.375 0
1.0625 0.4375 0
1.125 0.4375 0
1 0.4375 0
1.0625 0.4375 0
1 0.5 0
1.0625 0.5 0
1.0625 0.4375 0
1.125 0.4375 0
1.0625 0.5 0
1.125 0.5 0
1.125 0.375 0
1.1875 0.375 0
1.125 0.4375 0
1.1875 0.4375 0
1.1875 0.375 0
1.25 0.375 0
1.1875 0.4375 0
1.25 0.4375 0
1.125 0.4375 0
1.1875 0.4375 0
1.125 0.5 0
1.1875 0.5 0
1.1875 0.4375 0
1.25 0.4375 0
1.1875 0.5 0
1.25 0.5 0
[...]
POINT_DATA 2048
SCALARS density double 1
LOOKUP_TABLE default
0.998239 0.998239 0.998239 0.998239 0.998727 0.998727 0.998727 0.998727 0.900369 0.900369 0.900369 0.900369 0.899382 0.899382 0.899382 0.899382 0.998849 0.998849 0.998849 0.998849 0.998851 0.998851 0.998851 0.998851 0.904589 0.904589 0.904589 0.904589 0.908773 0.908773 0.908773 0.908773 0.664974 0.664974 0.664974 0.664974 0.663413 0.663413 0.663413 0.663413 0.334696 0.334696 0.334696 0.334696 0.336347 0.336347 0.336347 0.336347 0.665917 0.665917 0.665917 0.665917 0.689406 0.689406 0.689406 0.689406 0.334736 0.334736 0.334736 0.334736 0.368245 0.368245 0.368245 0.368245 0.998851 0.998851 0.998851 0.998851 1 1 1 1 0.933646 0.933646 0.933646 0.933646 0.970125 0.970125 0.970125 0.970125 0.994809 0.994809 0.994809 0.994809 0.965155 0.965155 0.965155 0.965155 0.968339 0.968339 0.968339 0.968339 0.909724 0.909724 0.909724 0.909724 0.751625 0.751625 0.751625 0.751625 0.843285 0.843285 0.843285 0.843285 0.458898 0.458898 0.458898 0.458898 0.611889 0.611889 0.611889 0.611889 0.887942 0.887942 0.887942 0.887942 0.841087 0.841087 0.841087 0.841087 0.740296 0.740296 0.740296 0.740296 0.765706 0.765706 0.765706 0.765706 0.0923476 0.0923476 0.0923476 0.0923476 0.0932505 0.0932505 0.0932505 0.0932505 0.00132399 0.00132399 0.00132399 0.00132399 0.000953855 0.000953855 0.000953855 0.000953855 0.0889426 0.0889426 0.0889426 0.0889426 0.112515 0.112515 0.112515 0.112515 0.00086772 0.00086772 0.00086772 0.00086772 0.00478268 0.00478268 0.00478268 0.00478268 0 0 0 0 0 0 0 0 0 0 0 0 0 0 0 0 0 0 0 0 0 0 0 0 0 0 0 0 0 0 0 0 0.191138 0.191138 0.191138 0.191138 0.346578 0.346578 0.346578 0.346578 0.0411499 0.0411499 0.0411499 0.0411499 0.146638 0.146638 0.146638 0.146638 0.542463 0.542463 0.542463 0.542463 0.676486 0.676486 0.676486 0.676486 0.327317 0.327317 0.327317 0.327317 0.532313 0.532313 0.532313 0.532313 0.00210277 0.00210277 0.00210277 0.00210277 0.0375074 0.0375074 0.0375074 0.0375074 0 0 0 0 0.00330909 0.00330909 0.00330909 0.00330909 0.147518 0.147518 0.147518 0.147518 0.318202 0.318202 0.318202 0.318202 0.0452897 0.0452897 0.0452897 0.0452897 0.150633 0.150633 0.150633 0.150633 0.934935 0.934935 0.934935 0.934935 0.92131 0.92131 0.92131 0.92131 0.825659 0.825659 0.825659 0.825659 0.768435 0.768435 0.768435 0.768435 0.93085 0.93085 0.93085 0.93085 0.930205 0.930205 0.930205 0.930205 0.756212 0.756212 0.756212 0.756212 0.753268 0.753268 0.753268 0.753268 0.703225 0.703225 0.703225 0.703225 0.582227 0.582227 0.582227 0.582227 0.653487 0.653487 0.653487 0.653487 0.483257 0.483257 0.483257 0.483257 0.506139 0.506139 0.506139 0.506139 0.482741 0.482741 0.482741 0.482741 0.335428 0.335428 0.335428 0.335428 0.253874 0.253874 0.253874 0.253874 0.921474 0.921474 0.921474 0.921474 0.922536 0.922536 0.922536 0.922536 0.747096 0.747096 0.747096 0.747096 0.776266 0.776266 0.776266 0.776266 0.946349 0.946349 0.946349 0.946349 0.966577 0.966577 0.966577 0.966577 0.829296 0.829296 0.829296 0.829296 0.871421 0.871421 0.871421 0.871421 0.498901 0.498901 0.498901 0.498901 0.582722 0.582722 0.582722 0.582722 0.296867 0.296867 0.296867 0.296867 0.454243 0.454243 0.454243 0.454243 0.683081 0.683081 0.683081 0.683081 0.721653 0.721653 0.721653 0.721653 0.575722 0.575722 0.575722 0.575722 0.563941 0.563941 0.563941 0.563941 0.684964 0.684964 0.684964 0.684964 0.563817 0.563817 0.563817 0.563817 0.665515 0.665515 0.665515 0.665515 0.672935 0.672935 0.672935 0.672935 0.385312 0.385312 0.385312 0.385312 0.275645 0.275645 0.275645 0.275645 0.579985 0.579985 0.579985 0.579985 0.498358 0.498358 0.498358 0.498358 0.508219 0.508219 0.508219 0.508219 0.649453 0.649453 0.649453 0.649453 0.333151 0.333151 0.333151 0.333151 0.553752 0.553752 0.553752 0.553752 0.71379 0.71379 0.71379 0.71379 0.723085 0.723085 0.723085 0.723085 0.747115 0.747115 0.747115 0.747115 0.832574 0.832574 0.832574 0.832574 0.319628 0.319628 0.319628 0.319628 0.468231 0.468231 0.468231 0.468231 0.506255 0.506255 0.506255 0.506255 0.557345 0.557345 0.557345 0.557345 0.547413 0.547413 0.547413 0.547413 0.455384 0.455384 0.455384 0.455384 0.522437 0.522437 0.522437 0.522437 0.348764 0.348764 0.348764 0.348764 0.690833 0.690833 0.690833 0.690833 0.59704 0.59704 0.59704 0.59704 0.782693 0.782693 0.782693 0.782693 0.595097 0.595097 0.595097 0.595097 0.430068 0.430068 0.430068 0.430068 0.221318 0.221318 0.221318 0.221318 0.336621 0.336621 0.336621 0.336621 0.115885 0.115885 0.115885 0.115885 0.938945 0.938945 0.938945 0.938945 0.85005 0.85005 0.85005 0.85005 0.864239 0.864239 0.864239 0.864239 0.830132 0.830132 0.830132 0.830132 0.707205 0.707205 0.707205 0.707205 0.543154 0.543154 0.543154 0.543154 0.793267 0.793267 0.793267 0.793267 0.719453 0.719453 0.719453 0.719453 0.704168 0.704168 0.704168 0.704168 0.695643 0.695643 0.695643 0.695643 0.474734 0.474734 0.474734 0.474734 0.439724 0.439724 0.439724 0.439724 0.736632 0.736632 0.736632 0.736632 0.76661 0.76661 0.76661 0.76661 0.505261 0.505261 0.505261 0.505261 0.618989 0.618989 0.618989 0.618989 0.383086 0.383086 0.383086 0.383086 0.245983 0.245983 0.245983 0.245983 0.608787 0.608787 0.608787 0.608787 0.461657 0.461657 0.461657 0.461657 0.123181 0.123181 0.123181 0.123181 0.0402401 0.0402401 0.0402401 0.0402401 0.310728 0.310728 0.310728 0.310728 0.185959 0.185959 0.185959 0.185959 0.757729 0.757729 0.757729 0.757729 0.688176 0.688176 0.688176 0.688176 0.707372 0.707372 0.707372 0.707372 0.7469 0.7469 0.7469 0.7469 0.573737 0.573737 0.573737 0.573737 0.434066 0.434066 0.434066 0.434066 0.74734 0.74734 0.74734 0.74734 0.701002 0.701002 0.701002 0.701002 0.278305 0.278305 0.278305 0.278305 0.190606 0.190606 0.190606 0.190606 0.147119 0.147119 0.147119 0.147119 0.0451866 0.0451866 0.0451866 0.0451866 0.21996 0.21996 0.21996 0.21996 0.321119 0.321119 0.321119 0.321119 0.0482952 0.0482952 0.0482952 0.0482952 0.098894 0.098894 0.098894 0.098894 0.0645714 0.0645714 0.0645714 0.0645714 0.00425995 0.00425995 0.00425995 0.00425995 0.0150852 0.0150852 0.0150852 0.0150852 0 0 0 0 0.000521441 0.000521441 0.000521441 0.000521441 0.00478268 0.00478268 0.00478268 0.00478268 0 0 0 0 0 0 0 0 0.437208 0.437208 0.437208 0.437208 0.572021 0.572021 0.572021 0.572021 0.171427 0.171427 0.171427 0.171427 0.284989 0.284989 0.284989 0.284989 0.687445 0.687445 0.687445 0.687445 0.755008 0.755008 0.755008 0.755008 0.423264 0.423264 0.423264 0.423264 0.572237 0.572237 0.572237 0.572237 0.027967 0.027967 0.027967 0.027967 0.0849497 0.0849497 0.0849497 0.0849497 0 0 0 0 0.00478268 0.00478268 0.00478268 0.00478268 0.169028 0.169028 0.169028 0.169028 0.283252 0.283252 0.283252 0.283252 0.027967 0.027967 0.027967 0.027967 0.088339 0.088339 0.088339 0.088339 0.0069116 0.0069116 0.0069116 0.0069116 0.000518402 0.000518402 0.000518402 0.000518402 0.101953 0.101953 0.101953 0.101953 0.043916 0.043916 0.043916 0.043916 0 0 0 0 0 0 0 0 0.0142786 0.0142786 0.0142786 0.0142786 0.00243408 0.00243408 0.00243408 0.00243408 0.308948 0.308948 0.308948 0.308948 0.202859 0.202859 0.202859 0.202859 0.60216 0.60216 0.60216 0.60216 0.48675 0.48675 0.48675 0.48675 0.130623 0.130623 0.130623 0.130623 0.0704459 0.0704459 0.0704459 0.0704459 0.374227 0.374227 0.374227 0.374227 0.262827 0.262827 0.262827 0.262827 0 0 0 0 0 0 0 0 0 0 0 0 0 0 0 0 0 0 0 0 0 0 0 0 0 0 0 0 0 0 0 0 0.027977 0.027977 0.027977 0.027977 0.00456865 0.00456865 0.00456865 0.00456865 0.16279 0.16279 0.16279 0.16279 0.0766317 0.0766317 0.0766317 0.0766317 0 0 0 0 0 0 0 0 0.0240019 0.0240019 0.0240019 0.0240019 0.00522989 0.00522989 0.00522989 0.00522989 0.768458 0.768458 0.768458 0.768458 0.748339 0.748339 0.748339 0.748339 0.692602 0.692602 0.692602 0.692602 0.773831 0.773831 0.773831 0.773831 0.671369 0.671369 0.671369 0.671369 0.555392 0.555392 0.555392 0.555392 0.788582 0.788582 0.788582 0.788582 0.754225 0.754225 0.754225 0.754225 0.419243 0.419243 0.419243 0.419243 0.548324 0.548324 0.548324 0.548324 0.191892 0.191892 0.191892 0.191892 0.307088 0.307088 0.307088 0.307088 0.647501 0.647501 0.647501 0.647501 0.730833 0.730833 0.730833 0.730833 0.441728 0.441728 0.441728 0.441728 0.598768 0.598768 0.598768 0.598768 0.408285 0.408285 0.408285 0.408285 0.265833 0.265833 0.265833 0.265833 0.664182 0.664182 0.664182 0.664182 0.543829 0.543829 0.543829 0.543829 0.168383 0.168383 0.168383 0.168383 0.117219 0.117219 0.117219 0.117219 0.437446 0.437446 0.437446 0.437446 0.372716 0.372716 0.372716 0.372716 0.775656 0.775656 0.775656 0.775656 0.774636 0.774636 0.774636 0.774636 0.769985 0.769985 0.769985 0.769985 0.888084 0.888084 0.888084 0.888084 0.734225 0.734225 0.734225 0.734225 0.690175 0.690175 0.690175 0.690175 0.9202 0.9202 0.9202 0.9202 0.910089 0.910089 0.910089 0.910089 0 0 0 0 0 0 0 0 0 0 0 0 0 0 0 0 0 0 0 0 0 0 0 0 0 0 0 0 0 0 0 0 0.00132399 0.00132399 0.00132399 0.00132399 0.000953855 0.000953855 0.000953855 0.000953855 0.0923476 0.0923476 0.0923476 0.0923476 0.0932505 0.0932505 0.0932505 0.0932505 0.00086772 0.00086772 0.00086772 0.00086772 0.00478268 0.00478268 0.00478268 0.00478268 0.0889426 0.0889426 0.0889426 0.0889426 0.112515 0.112515 0.112515 0.112515 0 0 0 0 0.00330909 0.00330909 0.00330909 0.00330909 0.00210277 0.00210277 0.00210277 0.00210277 0.0375074 0.0375074 0.0375074 0.0375074 0.0452897 0.0452897 0.0452897 0.0452897 0.150633 0.150633 0.150633 0.150633 0.147518 0.147518 0.147518 0.147518 0.318202 0.318202 0.318202 0.318202 0.0411499 0.0411499 0.0411499 0.0411499 0.146638 0.146638 0.146638 0.146638 0.191138 0.191138 0.191138 0.191138 0.346578 0.346578 0.346578 0.346578 0.327317 0.327317 0.327317 0.327317 0.532313 0.532313 0.532313 0.532313 0.542463 0.542463 0.542463 0.542463 0.676486 0.676486 0.676486 0.676486 0.334696 0.334696 0.334696 0.334696 0.336347 0.336347 0.336347 0.336347 0.664974 0.664974 0.664974 0.664974 0.663413 0.663413 0.663413 0.663413 0.334736 0.334736 0.334736 0.334736 0.368245 0.368245 0.368245 0.368245 0.665917 0.665917 0.665917 0.665917 0.689406 0.689406 0.689406 0.689406 0.900369 0.900369 0.900369 0.900369 0.899382 0.899382 0.899382 0.899382 0.998239 0.998239 0.998239 0.998239 0.998727 0.998727 0.998727 0.998727 0.904589 0.904589 0.904589 0.904589 0.908773 0.908773 0.908773 0.908773 0.998849 0.998849 0.998849 0.998849 0.998851 0.998851 0.998851 0.998851 0.458898 0.458898 0.458898 0.458898 0.611889 0.611889 0.611889 0.611889 0.751625 0.751625 0.751625 0.751625 0.843285 0.843285 0.843285 0.843285 0.740296 0.740296 0.740296 0.740296 0.765706 0.765706 0.765706 0.765706 0.887942 0.887942 0.887942 0.887942 0.841087 0.841087 0.841087 0.841087 0.933646 0.933646 0.933646 0.933646 0.970125 0.970125 0.970125 0.970125 0.998851 0.998851 0.998851 0.998851 1 1 1 1 0.968339 0.968339 0.968339 0.968339 0.909724 0.909724 0.909724 0.909724 0.994809 0.994809 0.994809 0.994809 0.965155 0.965155 0.965155 0.965155 0.333151 0.333151 0.333151 0.333151 0.553752 0.553752 0.553752 0.553752 0.508219 0.508219 0.508219 0.508219 0.649453 0.649453 0.649453 0.649453 0.747115 0.747115 0.747115 0.747115 0.832574 0.832574 0.832574 0.832574 0.71379 0.71379 0.71379 0.71379 0.723085 0.723085 0.723085 0.723085 0.665515 0.665515 0.665515 0.665515 0.672935 0.672935 0.672935 0.672935 0.684964 0.684964 0.684964 0.684964 0.563817 0.563817 0.563817 0.563817 0.579985 0.579985 0.579985 0.579985 0.498358 0.498358 0.498358 0.498358 0.385312 0.385312 0.385312 0.385312 0.275645 0.275645 0.275645 0.275645 0.782693 0.782693 0.782693 0.782693 0.595097 0.595097 0.595097 0.595097 0.690833 0.690833 0.690833 0.690833 0.59704 0.59704 0.59704 0.59704 0.336621 0.336621 0.336621 0.336621 0.115885 0.115885 0.115885 0.115885 0.430068 0.430068 0.430068 0.430068 0.221318 0.221318 0.221318 0.221318 0.506255 0.506255 0.506255 0.506255 0.557345 0.557345 0.557345 0.557345 0.319628 0.319628 0.319628 0.319628 0.468231 0.468231 0.468231 0.468231 0.522437 0.522437 0.522437 0.522437 0.348764 0.348764 0.348764 0.348764 0.547413 0.547413 0.547413 0.547413 0.455384 0.455384 0.455384 0.455384 0.653487 0.653487 0.653487 0.653487 0.483257 0.483257 0.483257 0.483257 0.703225 0.703225 0.703225 0.703225 0.582227 0.582227 0.582227 0.582227 0.335428 0.335428 0.335428 0.335428 0.253874 0.253874 0.253874 0.253874 0.506139 0.506139 0.506139 0.506139 0.482741 0.482741 0.482741 0.482741 0.825659 0.825659 0.825659 0.825659 0.768435 0.768435 0.768435 0.768435 0.934935 0.934935 0.934935 0.934935 0.92131 0.92131 0.92131 0.92131 0.756212 0.756212 0.756212 0.756212 0.753268 0.753268 0.753268 0.753268 0.93085 0.93085 0.93085 0.93085 0.930205 0.930205 0.930205 0.930205 0.296867 0.296867 0.296867 0.296867 0.454243 0.454243 0.454243 0.454243 0.498901 0.498901 0.498901 0.498901 0.582722 0.582722 0.582722 0.582722 0.575722 0.575722 0.575722 0.575722 0.563941 0.563941 0.563941 0.563941 0.683081 0.683081 0.683081 0.683081 0.721653 0.721653 0.721653 0.721653 0.747096 0.747096 0.747096 0.747096 0.776266 0.776266 0.776266 0.776266 0.921474 0.921474 0.921474 0.921474 0.922536 0.922536 0.922536 0.922536 0.829296 0.829296 0.829296 0.829296 0.871421 0.871421 0.871421 0.871421 0.946349 0.946349 0.946349 0.946349 0.966577 0.966577 0.966577 0.966577 0.0150852 0.0150852 0.0150852 0.0150852 0 0 0 0 0.0645714 0.0645714 0.0645714 0.0645714 0.00425995 0.00425995 0.00425995 0.00425995 0 0 0 0 0 0 0 0 0.000521441 0.000521441 0.000521441 0.000521441 0.00478268 0.00478268 0.00478268 0.00478268 0.147119 0.147119 0.147119 0.147119 0.0451866 0.0451866 0.0451866 0.0451866 0.278305 0.278305 0.278305 0.278305 0.190606 0.190606 0.190606 0.190606 0.0482952 0.0482952 0.0482952 0.0482952 0.098894 0.098894 0.098894 0.098894 0.21996 0.21996 0.21996 0.21996 0.321119 0.321119 0.321119 0.321119 0 0 0 0 0.00478268 0.00478268 0.00478268 0.00478268 0.027967 0.027967 0.027967 0.027967 0.0849497 0.0849497 0.0849497 0.0849497 0.027967 0.027967 0.027967 0.027967 0.088339 0.088339 0.088339 0.088339 0.169028 0.169028 0.169028 0.169028 0.283252 0.283252 0.283252 0.283252 0.171427 0.171427 0.171427 0.171427 0.284989 0.284989 0.284989 0.284989 0.437208 0.437208 0.437208 0.437208 0.572021 0.572021 0.572021 0.572021 0.423264 0.423264 0.423264 0.423264 0.572237 0.572237 0.572237 0.572237 0.687445 0.687445 0.687445 0.687445 0.755008 0.755008 0.755008 0.755008 0.474734 0.474734 0.474734 0.474734 0.439724 0.439724 0.439724 0.439724 0.704168 0.704168 0.704168 0.704168 0.695643 0.695643 0.695643 0.695643 0.505261 0.505261 0.505261 0.505261 0.618989 0.618989 0.618989 0.618989 0.736632 0.736632 0.736632 0.736632 0.76661 0.76661 0.76661 0.76661 0.864239 0.864239 0.864239 0.864239 0.830132 0.830132 0.830132 0.830132 0.938945 0.938945 0.938945 0.938945 0.85005 0.85005 0.85005 0.85005 0.793267 0.793267 0.793267 0.793267 0.719453 0.719453 0.719453 0.719453 0.707205 0.707205 0.707205 0.707205 0.543154 0.543154 0.543154 0.543154 0.707372 0.707372 0.707372 0.707372 0.7469 0.7469 0.7469 0.7469 0.757729 0.757729 0.757729 0.757729 0.688176 0.688176 0.688176 0.688176 0.74734 0.74734 0.74734 0.74734 0.701002 0.701002 0.701002 0.701002 0.573737 0.573737 0.573737 0.573737 0.434066 0.434066 0.434066 0.434066 0.608787 0.608787 0.608787 0.608787 0.461657 0.461657 0.461657 0.461657 0.383086 0.383086 0.383086 0.383086 0.245983 0.245983 0.245983 0.245983 0.310728 0.310728 0.310728 0.310728 0.185959 0.185959 0.185959 0.185959 0.123181 0.123181 0.123181 0.123181 0.0402401 0.0402401 0.0402401 0.0402401 0.191892 0.191892 0.191892 0.191892 0.307088 0.307088 0.307088 0.307088 0.419243 0.419243 0.419243 0.419243 0.548324 0.548324 0.548324 0.548324 0.441728 0.441728 0.441728 0.441728 0.598768 0.598768 0.598768 0.598768 0.647501 0.647501 0.647501 0.647501 0.730833 0.730833 0.730833 0.730833 0.692602 0.692602 0.692602 0.692602 0.773831 0.773831 0.773831 0.773831 0.768458 0.768458 0.768458 0.768458 0.748339 0.748339 0.748339 0.748339 0.788582 0.788582 0.788582 0.788582 0.754225 0.754225 0.754225 0.754225 0.671369 0.671369 0.671369 0.671369 0.555392 0.555392 0.555392 0.555392 0.769985 0.769985 0.769985 0.769985 0.888084 0.888084 0.888084 0.888084 0.775656 0.775656 0.775656 0.775656 0.774636 0.774636 0.774636 0.774636 0.9202 0.9202 0.9202 0.9202 0.910089 0.910089 0.910089 0.910089 0.734225 0.734225 0.734225 0.734225 0.690175 0.690175 0.690175 0.690175 0.664182 0.664182 0.664182 0.664182 0.543829 0.543829 0.543829 0.543829 0.408285 0.408285 0.408285 0.408285 0.265833 0.265833 0.265833 0.265833 0.437446 0.437446 0.437446 0.437446 0.372716 0.372716 0.372716 0.372716 0.168383 0.168383 0.168383 0.168383 0.117219 0.117219 0.117219 0.117219 0.60216 0.60216 0.60216 0.60216 0.48675 0.48675 0.48675 0.48675 0.308948 0.308948 0.308948 0.308948 0.202859 0.202859 0.202859 0.202859 0.374227 0.374227 0.374227 0.374227 0.262827 0.262827 0.262827 0.262827 0.130623 0.130623 0.130623 0.130623 0.0704459 0.0704459 0.0704459 0.0704459 0.101953 0.101953 0.101953 0.101953 0.043916 0.043916 0.043916 0.043916 0.0069116 0.0069116 0.0069116 0.0069116 0.000518402 0.000518402 0.000518402 0.000518402 0.0142786 0.0142786 0.0142786 0.0142786 0.00243408 0.00243408 0.00243408 0.00243408 0 0 0 0 0 0 0 0 0.16279 0.16279 0.16279 0.16279 0.0766317 0.0766317 0.0766317 0.0766317 0.027977 0.027977 0.027977 0.027977 0.00456865 0.00456865 0.00456865 0.00456865 0.0240019 0.0240019 0.0240019 0.0240019 0.00522989 0.00522989 0.00522989 0.00522989 0 0 0 0 0 0 0 0 0 0 0 0 0 0 0 0 0 0 0 0 0 0 0 0 0 0 0 0 0 0 0 0 0 0 0 0 0 0 0 0 
