# vtk DataFile Version 3.0
#This file was generated by the deal.II library on 2016/3/9 at 8:36:02
ASCII
DATASET UNSTRUCTURED_GRID

POINTS 2048 double
0 0 0
0.0625 0 0
0 0.0625 0
0.0625 0.0625 0
0.0625 0 0
0.125 0 0
0.0625 0.0625 0
0.125 0.0625 0
0 0.0625 0
0.0625 0.0625 0
0 0.125 0
0.0625 0.125 0
0.0625 0.0625 0
0.125 0.0625 0
0.0625 0.125 0
0.125 0.125 0
0.125 0 0
0.1875 0 0
0.125 0.0625 0
0.1875 0.0625 0
0.1875 0 0
0.25 0 0
0.1875 0.0625 0
0.25 0.0625 0
0.125 0.0625 0
0.1875 0.0625 0
0.125 0.125 0
0.1875 0.125 0
0.1875 0.0625 0
0.25 0.0625 0
0.1875 0.125 0
0.25 0.125 0
0 0.125 0
0.0625 0.125 0
0 0.1875 0
0.0625 0.1875 0
0.0625 0.125 0
0.125 0.125 0
0.0625 0.1875 0
0.125 0.1875 0
0 0.1875 0
0.0625 0.1875 0
0 0.25 0
0.0625 0.25 0
0.0625 0.1875 0
0.125 0.1875 0
0.0625 0.25 0
0.125 0.25 0
0.125 0.125 0
0.1875 0.125 0
0.125 0.1875 0
0.1875 0.1875 0
0.1875 0.125 0
0.25 0.125 0
0.1875 0.1875 0
0.25 0.1875 0
0.125 0.1875 0
0.1875 0.1875 0
0.125 0.25 0
0.1875 0.25 0
0.1875 0.1875 0
0.25 0.1875 0
0.1875 0.25 0
0.25 0.25 0
0.25 0 0
0.3125 0 0
0.25 0.0625 0
0.3125 0.0625 0
0.3125 0 0
0.375 0 0
0.3125 0.0625 0
0.375 0.0625 0
0.25 0.0625 0
0.3125 0.0625 0
0.25 0.125 0
0.3125 0.125 0
0.3125 0.0625 0
0.375 0.0625 0
0.3125 0.125 0
0.375 0.125 0
0.375 0 0
0.4375 0 0
0.375 0.0625 0
0.4375 0.0625 0
0.4375 0 0
0.5 0 0
0.4375 0.0625 0
0.5 0.0625 0
0.375 0.0625 0
0.4375 0.0625 0
0.375 0.125 0
0.4375 0.125 0
0.4375 0.0625 0
0.5 0.0625 0
0.4375 0.125 0
0.5 0.125 0
0.25 0.125 0
0.3125 0.125 0
0.25 0.1875 0
0.3125 0.1875 0
0.3125 0.125 0
0.375 0.125 0
0.3125 0.1875 0
0.375 0.1875 0
0.25 0.1875 0
0.3125 0.1875 0
0.25 0.25 0
0.3125 0.25 0
0.3125 0.1875 0
0.375 0.1875 0
0.3125 0.25 0
0.375 0.25 0
0.375 0.125 0
0.4375 0.125 0
0.375 0.1875 0
0.4375 0.1875 0
0.4375 0.125 0
0.5 0.125 0
0.4375 0.1875 0
0.5 0.1875 0
0.375 0.1875 0
0.4375 0.1875 0
0.375 0.25 0
0.4375 0.25 0
0.4375 0.1875 0
0.5 0.1875 0
0.4375 0.25 0
0.5 0.25 0
0 0.25 0
0.0625 0.25 0
0 0.3125 0
0.0625 0.3125 0
0.0625 0.25 0
0.125 0.25 0
0.0625 0.3125 0
0.125 0.3125 0
0 0.3125 0
0.0625 0.3125 0
0 0.375 0
0.0625 0.375 0
0.0625 0.3125 0
0.125 0.3125 0
0.0625 0.375 0
0.125 0.375 0
0.125 0.25 0
0.1875 0.25 0
0.125 0.3125 0
0.1875 0.3125 0
0.1875 0.25 0
0.25 0.25 0
0.1875 0.3125 0
0.25 0.3125 0
0.125 0.3125 0
0.1875 0.3125 0
0.125 0.375 0
0.1875 0.375 0
0.1875 0.3125 0
0.25 0.3125 0
0.1875 0.375 0
0.25 0.375 0
0 0.375 0
0.0625 0.375 0
0 0.4375 0
0.0625 0.4375 0
0.0625 0.375 0
0.125 0.375 0
0.0625 0.4375 0
0.125 0.4375 0
0 0.4375 0
0.0625 0.4375 0
0 0.5 0
0.0625 0.5 0
0.0625 0.4375 0
0.125 0.4375 0
0.0625 0.5 0
0.125 0.5 0
0.125 0.375 0
0.1875 0.375 0
0.125 0.4375 0
0.1875 0.4375 0
0.1875 0.375 0
0.25 0.375 0
0.1875 0.4375 0
0.25 0.4375 0
0.125 0.4375 0
0.1875 0.4375 0
0.125 0.5 0
0.1875 0.5 0
0.1875 0.4375 0
0.25 0.4375 0
0.1875 0.5 0
0.25 0.5 0
0.25 0.25 0
0.3125 0.25 0
0.25 0.3125 0
0.3125 0.3125 0
0.3125 0.25 0
0.375 0.25 0
0.3125 0.3125 0
0.375 0.3125 0
0.25 0.3125 0
0.3125 0.3125 0
0.25 0.375 0
0.3125 0.375 0
0.3125 0.3125 0
0.375 0.3125 0
0.3125 0.375 0
0.375 0.375 0
0.375 0.25 0
0.4375 0.25 0
0.375 0.3125 0
0.4375 0.3125 0
0.4375 0.25 0
0.5 0.25 0
0.4375 0.3125 0
0.5 0.3125 0
0.375 0.3125 0
0.4375 0.3125 0
0.375 0.375 0
0.4375 0.375 0
0.4375 0.3125 0
0.5 0.3125 0
0.4375 0.375 0
0.5 0.375 0
0.25 0.375 0
0.3125 0.375 0
0.25 0.4375 0
0.3125 0.4375 0
0.3125 0.375 0
0.375 0.375 0
0.3125 0.4375 0
0.375 0.4375 0
0.25 0.4375 0
0.3125 0.4375 0
0.25 0.5 0
0.3125 0.5 0
0.3125 0.4375 0
0.375 0.4375 0
0.3125 0.5 0
0.375 0.5 0
0.375 0.375 0
0.4375 0.375 0
0.375 0.4375 0
0.4375 0.4375 0
0.4375 0.375 0
0.5 0.375 0
0.4375 0.4375 0
0.5 0.4375 0
0.375 0.4375 0
0.4375 0.4375 0
0.375 0.5 0
0.4375 0.5 0
0.4375 0.4375 0
0.5 0.4375 0
0.4375 0.5 0
0.5 0.5 0
0.5 0 0
0.5625 0 0
0.5 0.0625 0
0.5625 0.0625 0
0.5625 0 0
0.625 0 0
0.5625 0.0625 0
0.625 0.0625 0
0.5 0.0625 0
0.5625 0.0625 0
0.5 0.125 0
0.5625 0.125 0
0.5625 0.0625 0
0.625 0.0625 0
0.5625 0.125 0
0.625 0.125 0
0.625 0 0
0.6875 0 0
0.625 0.0625 0
0.6875 0.0625 0
0.6875 0 0
0.75 0 0
0.6875 0.0625 0
0.75 0.0625 0
0.625 0.0625 0
0.6875 0.0625 0
0.625 0.125 0
0.6875 0.125 0
0.6875 0.0625 0
0.75 0.0625 0
0.6875 0.125 0
0.75 0.125 0
0.5 0.125 0
0.5625 0.125 0
0.5 0.1875 0
0.5625 0.1875 0
0.5625 0.125 0
0.625 0.125 0
0.5625 0.1875 0
0.625 0.1875 0
0.5 0.1875 0
0.5625 0.1875 0
0.5 0.25 0
0.5625 0.25 0
0.5625 0.1875 0
0.625 0.1875 0
0.5625 0.25 0
0.625 0.25 0
0.625 0.125 0
0.6875 0.125 0
0.625 0.1875 0
0.6875 0.1875 0
0.6875 0.125 0
0.75 0.125 0
0.6875 0.1875 0
0.75 0.1875 0
0.625 0.1875 0
0.6875 0.1875 0
0.625 0.25 0
0.6875 0.25 0
0.6875 0.1875 0
0.75 0.1875 0
0.6875 0.25 0
0.75 0.25 0
0.75 0 0
0.8125 0 0
0.75 0.0625 0
0.8125 0.0625 0
0.8125 0 0
0.875 0 0
0.8125 0.0625 0
0.875 0.0625 0
0.75 0.0625 0
0.8125 0.0625 0
0.75 0.125 0
0.8125 0.125 0
0.8125 0.0625 0
0.875 0.0625 0
0.8125 0.125 0
0.875 0.125 0
0.875 0 0
0.9375 0 0
0.875 0.0625 0
0.9375 0.0625 0
0.9375 0 0
1 0 0
0.9375 0.0625 0
1 0.0625 0
0.875 0.0625 0
0.9375 0.0625 0
0.875 0.125 0
0.9375 0.125 0
0.9375 0.0625 0
1 0.0625 0
0.9375 0.125 0
1 0.125 0
0.75 0.125 0
0.8125 0.125 0
0.75 0.1875 0
0.8125 0.1875 0
0.8125 0.125 0
0.875 0.125 0
0.8125 0.1875 0
0.875 0.1875 0
0.75 0.1875 0
0.8125 0.1875 0
0.75 0.25 0
0.8125 0.25 0
0.8125 0.1875 0
0.875 0.1875 0
0.8125 0.25 0
0.875 0.25 0
0.875 0.125 0
0.9375 0.125 0
0.875 0.1875 0
0.9375 0.1875 0
0.9375 0.125 0
1 0.125 0
0.9375 0.1875 0
1 0.1875 0
0.875 0.1875 0
0.9375 0.1875 0
0.875 0.25 0
0.9375 0.25 0
0.9375 0.1875 0
1 0.1875 0
0.9375 0.25 0
1 0.25 0
0.5 0.25 0
0.5625 0.25 0
0.5 0.3125 0
0.5625 0.3125 0
0.5625 0.25 0
0.625 0.25 0
0.5625 0.3125 0
0.625 0.3125 0
0.5 0.3125 0
0.5625 0.3125 0
0.5 0.375 0
0.5625 0.375 0
0.5625 0.3125 0
0.625 0.3125 0
0.5625 0.375 0
0.625 0.375 0
0.625 0.25 0
0.6875 0.25 0
0.625 0.3125 0
0.6875 0.3125 0
0.6875 0.25 0
0.75 0.25 0
0.6875 0.3125 0
0.75 0.3125 0
0.625 0.3125 0
0.6875 0.3125 0
0.625 0.375 0
0.6875 0.375 0
0.6875 0.3125 0
0.75 0.3125 0
0.6875 0.375 0
0.75 0.375 0
0.5 0.375 0
0.5625 0.375 0
0.5 0.4375 0
0.5625 0.4375 0
0.5625 0.375 0
0.625 0.375 0
0.5625 0.4375 0
0.625 0.4375 0
0.5 0.4375 0
0.5625 0.4375 0
0.5 0.5 0
0.5625 0.5 0
0.5625 0.4375 0
0.625 0.4375 0
0.5625 0.5 0
0.625 0.5 0
0.625 0.375 0
0.6875 0.375 0
0.625 0.4375 0
0.6875 0.4375 0
0.6875 0.375 0
0.75 0.375 0
0.6875 0.4375 0
0.75 0.4375 0
0.625 0.4375 0
0.6875 0.4375 0
0.625 0.5 0
0.6875 0.5 0
0.6875 0.4375 0
0.75 0.4375 0
0.6875 0.5 0
0.75 0.5 0
0.75 0.25 0
0.8125 0.25 0
0.75 0.3125 0
0.8125 0.3125 0
0.8125 0.25 0
0.875 0.25 0
0.8125 0.3125 0
0.875 0.3125 0
0.75 0.3125 0
0.8125 0.3125 0
0.75 0.375 0
0.8125 0.375 0
0.8125 0.3125 0
0.875 0.3125 0
0.8125 0.375 0
0.875 0.375 0
0.875 0.25 0
0.9375 0.25 0
0.875 0.3125 0
0.9375 0.3125 0
0.9375 0.25 0
1 0.25 0
0.9375 0.3125 0
1 0.3125 0
0.875 0.3125 0
0.9375 0.3125 0
0.875 0.375 0
0.9375 0.375 0
0.9375 0.3125 0
1 0.3125 0
0.9375 0.375 0
1 0.375 0
0.75 0.375 0
0.8125 0.375 0
0.75 0.4375 0
0.8125 0.4375 0
0.8125 0.375 0
0.875 0.375 0
0.8125 0.4375 0
0.875 0.4375 0
0.75 0.4375 0
0.8125 0.4375 0
0.75 0.5 0
0.8125 0.5 0
0.8125 0.4375 0
0.875 0.4375 0
0.8125 0.5 0
0.875 0.5 0
0.875 0.375 0
0.9375 0.375 0
0.875 0.4375 0
0.9375 0.4375 0
0.9375 0.375 0
1 0.375 0
0.9375 0.4375 0
1 0.4375 0
0.875 0.4375 0
0.9375 0.4375 0
0.875 0.5 0
0.9375 0.5 0
0.9375 0.4375 0
1 0.4375 0
0.9375 0.5 0
1 0.5 0
1 0 0
1.0625 0 0
1 0.0625 0
1.0625 0.0625 0
1.0625 0 0
1.125 0 0
1.0625 0.0625 0
1.125 0.0625 0
1 0.0625 0
1.0625 0.0625 0
1 0.125 0
1.0625 0.125 0
1.0625 0.0625 0
1.125 0.0625 0
1.0625 0.125 0
1.125 0.125 0
1.125 0 0
1.1875 0 0
1.125 0.0625 0
1.1875 0.0625 0
1.1875 0 0
1.25 0 0
1.1875 0.0625 0
1.25 0.0625 0
1.125 0.0625 0
1.1875 0.0625 0
1.125 0.125 0
1.1875 0.125 0
1.1875 0.0625 0
1.25 0.0625 0
1.1875 0.125 0
1.25 0.125 0
1 0.125 0
1.0625 0.125 0
1 0.1875 0
1.0625 0.1875 0
1.0625 0.125 0
1.125 0.125 0
1.0625 0.1875 0
1.125 0.1875 0
1 0.1875 0
1.0625 0.1875 0
1 0.25 0
1.0625 0.25 0
1.0625 0.1875 0
1.125 0.1875 0
1.0625 0.25 0
1.125 0.25 0
1.125 0.125 0
1.1875 0.125 0
1.125 0.1875 0
1.1875 0.1875 0
1.1875 0.125 0
1.25 0.125 0
1.1875 0.1875 0
1.25 0.1875 0
1.125 0.1875 0
1.1875 0.1875 0
1.125 0.25 0
1.1875 0.25 0
1.1875 0.1875 0
1.25 0.1875 0
1.1875 0.25 0
1.25 0.25 0
1.25 0 0
1.3125 0 0
1.25 0.0625 0
1.3125 0.0625 0
1.3125 0 0
1.375 0 0
1.3125 0.0625 0
1.375 0.0625 0
1.25 0.0625 0
1.3125 0.0625 0
1.25 0.125 0
1.3125 0.125 0
1.3125 0.0625 0
1.375 0.0625 0
1.3125 0.125 0
1.375 0.125 0
1.375 0 0
1.4375 0 0
1.375 0.0625 0
1.4375 0.0625 0
1.4375 0 0
1.5 0 0
1.4375 0.0625 0
1.5 0.0625 0
1.375 0.0625 0
1.4375 0.0625 0
1.375 0.125 0
1.4375 0.125 0
1.4375 0.0625 0
1.5 0.0625 0
1.4375 0.125 0
1.5 0.125 0
1.25 0.125 0
1.3125 0.125 0
1.25 0.1875 0
1.3125 0.1875 0
1.3125 0.125 0
1.375 0.125 0
1.3125 0.1875 0
1.375 0.1875 0
1.25 0.1875 0
1.3125 0.1875 0
1.25 0.25 0
1.3125 0.25 0
1.3125 0.1875 0
1.375 0.1875 0
1.3125 0.25 0
1.375 0.25 0
1.375 0.125 0
1.4375 0.125 0
1.375 0.1875 0
1.4375 0.1875 0
1.4375 0.125 0
1.5 0.125 0
1.4375 0.1875 0
1.5 0.1875 0
1.375 0.1875 0
1.4375 0.1875 0
1.375 0.25 0
1.4375 0.25 0
1.4375 0.1875 0
1.5 0.1875 0
1.4375 0.25 0
1.5 0.25 0
1 0.25 0
1.0625 0.25 0
1 0.3125 0
1.0625 0.3125 0
1.0625 0.25 0
1.125 0.25 0
1.0625 0.3125 0
1.125 0.3125 0
1 0.3125 0
1.0625 0.3125 0
1 0.375 0
1.0625 0.375 0
1.0625 0.3125 0
1.125 0.3125 0
1.0625 0.375 0
1.125 0.375 0
1.125 0.25 0
1.1875 0.25 0
1.125 0.3125 0
1.1875 0.3125 0
1.1875 0.25 0
1.25 0.25 0
1.1875 0.3125 0
1.25 0.3125 0
1.125 0.3125 0
1.1875 0.3125 0
1.125 0.375 0
1.1875 0.375 0
1.1875 0.3125 0
1.25 0.3125 0
1.1875 0.375 0
1.25 0.375 0
1 0.375 0
1.0625 0.375 0
1 0.4375 0
1.0625 0.4375 0
1.0625 0.375 0
1.125 0.375 0
1.0625 0.4375 0
1.125 0.4375 0
1 0.4375 0
1.0625 0.4375 0
1 0.5 0
1.0625 0.5 0
1.0625 0.4375 0
1.125 0.4375 0
1.0625 0.5 0
1.125 0.5 0
1.125 0.375 0
1.1875 0.375 0
1.125 0.4375 0
1.1875 0.4375 0
1.1875 0.375 0
1.25 0.375 0
1.1875 0.4375 0
1.25 0.4375 0
1.125 0.4375 0
1.1875 0.4375 0
1.125 0.5 0
1.1875 0.5 0
1.1875 0.4375 0
1.25 0.4375 0
1.1875 0.5 0
1.25 0.5 0
[...]
POINT_DATA 2048
SCALARS density double 1
LOOKUP_TABLE default
0.999129 0.999129 0.999129 0.999129 0.999143 0.999143 0.999143 0.999143 0.941693 0.941693 0.941693 0.941693 0.932713 0.932713 0.932713 0.932713 0.996512 0.996512 0.996512 0.996512 0.980307 0.980307 0.980307 0.980307 0.915382 0.915382 0.915382 0.915382 0.875989 0.875989 0.875989 0.875989 0.760912 0.760912 0.760912 0.760912 0.74312 0.74312 0.74312 0.74312 0.464893 0.464893 0.464893 0.464893 0.44355 0.44355 0.44355 0.44355 0.709758 0.709758 0.709758 0.709758 0.655244 0.655244 0.655244 0.655244 0.404732 0.404732 0.404732 0.404732 0.355037 0.355037 0.355037 0.355037 0.95822 0.95822 0.95822 0.95822 0.958161 0.958161 0.958161 0.958161 0.84759 0.84759 0.84759 0.84759 0.868323 0.868323 0.868323 0.868323 0.975568 0.975568 0.975568 0.975568 0.981975 0.981975 0.981975 0.981975 0.922104 0.922104 0.922104 0.922104 0.962024 0.962024 0.962024 0.962024 0.633829 0.633829 0.633829 0.633829 0.690513 0.690513 0.690513 0.690513 0.35319 0.35319 0.35319 0.35319 0.446884 0.446884 0.446884 0.446884 0.800693 0.800693 0.800693 0.800693 0.889873 0.889873 0.889873 0.889873 0.606128 0.606128 0.606128 0.606128 0.738143 0.738143 0.738143 0.738143 0.188178 0.188178 0.188178 0.188178 0.173338 0.173338 0.173338 0.173338 0.0395581 0.0395581 0.0395581 0.0395581 0.0318256 0.0318256 0.0318256 0.0318256 0.147871 0.147871 0.147871 0.147871 0.120136 0.120136 0.120136 0.120136 0.0224722 0.0224722 0.0224722 0.0224722 0.0160694 0.0160694 0.0160694 0.0160694 0.000669198 0.000669198 0.000669198 0.000669198 0.000311989 0.000311989 0.000311989 0.000311989 0 0 0 0 0 0 0 0 0.000159426 0.000159426 0.000159426 0.000159426 0.000217317 0.000217317 0.000217317 0.000217317 0 0 0 0 0 0 0 0 0.132098 0.132098 0.132098 0.132098 0.228146 0.228146 0.228146 0.228146 0.0290068 0.0290068 0.0290068 0.0290068 0.0955939 0.0955939 0.0955939 0.0955939 0.39155 0.39155 0.39155 0.39155 0.550079 0.550079 0.550079 0.550079 0.230859 0.230859 0.230859 0.230859 0.398215 0.398215 0.398215 0.398215 0.005067 0.005067 0.005067 0.005067 0.0337891 0.0337891 0.0337891 0.0337891 0.000664238 0.000664238 0.000664238 0.000664238 0.0103702 0.0103702 0.0103702 0.0103702 0.133377 0.133377 0.133377 0.133377 0.302237 0.302237 0.302237 0.302237 0.0886274 0.0886274 0.0886274 0.0886274 0.255522 0.255522 0.255522 0.255522 0.974118 0.974118 0.974118 0.974118 0.948291 0.948291 0.948291 0.948291 0.943235 0.943235 0.943235 0.943235 0.868694 0.868694 0.868694 0.868694 0.914056 0.914056 0.914056 0.914056 0.893775 0.893775 0.893775 0.893775 0.776413 0.776413 0.776413 0.776413 0.714279 0.714279 0.714279 0.714279 0.869792 0.869792 0.869792 0.869792 0.751855 0.751855 0.751855 0.751855 0.74274 0.74274 0.74274 0.74274 0.621178 0.621178 0.621178 0.621178 0.602219 0.602219 0.602219 0.602219 0.49942 0.49942 0.49942 0.49942 0.455803 0.455803 0.455803 0.455803 0.339149 0.339149 0.339149 0.339149 0.897271 0.897271 0.897271 0.897271 0.916395 0.916395 0.916395 0.916395 0.717164 0.717164 0.717164 0.717164 0.77369 0.77369 0.77369 0.77369 0.935292 0.935292 0.935292 0.935292 0.936299 0.936299 0.936299 0.936299 0.833093 0.833093 0.833093 0.833093 0.865069 0.865069 0.865069 0.865069 0.499893 0.499893 0.499893 0.499893 0.591319 0.591319 0.591319 0.591319 0.34085 0.34085 0.34085 0.34085 0.441392 0.441392 0.441392 0.441392 0.690508 0.690508 0.690508 0.690508 0.74072 0.74072 0.74072 0.74072 0.545181 0.545181 0.545181 0.545181 0.579497 0.579497 0.579497 0.579497 0.614687 0.614687 0.614687 0.614687 0.557974 0.557974 0.557974 0.557974 0.528422 0.528422 0.528422 0.528422 0.567717 0.567717 0.567717 0.567717 0.439227 0.439227 0.439227 0.439227 0.350732 0.350732 0.350732 0.350732 0.528677 0.528677 0.528677 0.528677 0.488393 0.488393 0.488393 0.488393 0.480473 0.480473 0.480473 0.480473 0.587513 0.587513 0.587513 0.587513 0.458377 0.458377 0.458377 0.458377 0.599033 0.599033 0.599033 0.599033 0.614271 0.614271 0.614271 0.614271 0.609316 0.609316 0.609316 0.609316 0.653048 0.653048 0.653048 0.653048 0.667077 0.667077 0.667077 0.667077 0.352722 0.352722 0.352722 0.352722 0.417172 0.417172 0.417172 0.417172 0.482469 0.482469 0.482469 0.482469 0.485261 0.485261 0.485261 0.485261 0.46238 0.46238 0.46238 0.46238 0.433131 0.433131 0.433131 0.433131 0.443657 0.443657 0.443657 0.443657 0.33625 0.33625 0.33625 0.33625 0.598681 0.598681 0.598681 0.598681 0.552157 0.552157 0.552157 0.552157 0.658064 0.658064 0.658064 0.658064 0.584542 0.584542 0.584542 0.584542 0.437902 0.437902 0.437902 0.437902 0.277964 0.277964 0.277964 0.277964 0.434644 0.434644 0.434644 0.434644 0.251299 0.251299 0.251299 0.251299 0.886919 0.886919 0.886919 0.886919 0.795349 0.795349 0.795349 0.795349 0.846136 0.846136 0.846136 0.846136 0.801565 0.801565 0.801565 0.801565 0.643968 0.643968 0.643968 0.643968 0.460432 0.460432 0.460432 0.460432 0.723605 0.723605 0.723605 0.723605 0.613311 0.613311 0.613311 0.613311 0.746772 0.746772 0.746772 0.746772 0.73787 0.73787 0.73787 0.73787 0.564744 0.564744 0.564744 0.564744 0.552797 0.552797 0.552797 0.552797 0.735654 0.735654 0.735654 0.735654 0.714809 0.714809 0.714809 0.714809 0.590028 0.590028 0.590028 0.590028 0.638859 0.638859 0.638859 0.638859 0.286353 0.286353 0.286353 0.286353 0.17278 0.17278 0.17278 0.17278 0.487547 0.487547 0.487547 0.487547 0.385639 0.385639 0.385639 0.385639 0.103507 0.103507 0.103507 0.103507 0.0596089 0.0596089 0.0596089 0.0596089 0.296728 0.296728 0.296728 0.296728 0.206236 0.206236 0.206236 0.206236 0.675781 0.675781 0.675781 0.675781 0.627834 0.627834 0.627834 0.627834 0.68578 0.68578 0.68578 0.68578 0.734385 0.734385 0.734385 0.734385 0.557186 0.557186 0.557186 0.557186 0.445736 0.445736 0.445736 0.445736 0.754745 0.754745 0.754745 0.754745 0.70225 0.70225 0.70225 0.70225 0.354131 0.354131 0.354131 0.354131 0.301647 0.301647 0.301647 0.301647 0.203776 0.203776 0.203776 0.203776 0.11515 0.11515 0.11515 0.11515 0.318594 0.318594 0.318594 0.318594 0.375559 0.375559 0.375559 0.375559 0.0958277 0.0958277 0.0958277 0.0958277 0.125981 0.125981 0.125981 0.125981 0.127908 0.127908 0.127908 0.127908 0.0386257 0.0386257 0.0386257 0.0386257 0.102256 0.102256 0.102256 0.102256 0.0257318 0.0257318 0.0257318 0.0257318 0.00564606 0.00564606 0.00564606 0.00564606 0.0129946 0.0129946 0.0129946 0.0129946 0.000539506 0.000539506 0.000539506 0.000539506 0 0 0 0 0.471605 0.471605 0.471605 0.471605 0.6008 0.6008 0.6008 0.6008 0.204953 0.204953 0.204953 0.204953 0.337016 0.337016 0.337016 0.337016 0.724457 0.724457 0.724457 0.724457 0.775011 0.775011 0.775011 0.775011 0.494532 0.494532 0.494532 0.494532 0.609508 0.609508 0.609508 0.609508 0.0504575 0.0504575 0.0504575 0.0504575 0.128528 0.128528 0.128528 0.128528 0.00368718 0.00368718 0.00368718 0.00368718 0.0238983 0.0238983 0.0238983 0.0238983 0.229648 0.229648 0.229648 0.229648 0.321194 0.321194 0.321194 0.321194 0.0616275 0.0616275 0.0616275 0.0616275 0.103179 0.103179 0.103179 0.103179 0.0214922 0.0214922 0.0214922 0.0214922 0.00300728 0.00300728 0.00300728 0.00300728 0.113455 0.113455 0.113455 0.113455 0.0448706 0.0448706 0.0448706 0.0448706 0 0 0 0 0 0 0 0 0.012747 0.012747 0.012747 0.012747 0.00236953 0.00236953 0.00236953 0.00236953 0.306365 0.306365 0.306365 0.306365 0.191275 0.191275 0.191275 0.191275 0.582277 0.582277 0.582277 0.582277 0.458638 0.458638 0.458638 0.458638 0.119401 0.119401 0.119401 0.119401 0.0767468 0.0767468 0.0767468 0.0767468 0.359693 0.359693 0.359693 0.359693 0.274466 0.274466 0.274466 0.274466 0 0 0 0 0 0 0 0 0.000396898 0.000396898 0.000396898 0.000396898 0.00015878 0.00015878 0.00015878 0.00015878 0 0 0 0 0 0 0 0 0 0 0 0 0 0 0 0 0.0433085 0.0433085 0.0433085 0.0433085 0.0199561 0.0199561 0.0199561 0.0199561 0.185234 0.185234 0.185234 0.185234 0.100956 0.100956 0.100956 0.100956 0.00620136 0.00620136 0.00620136 0.00620136 0.000908159 0.000908159 0.000908159 0.000908159 0.0409322 0.0409322 0.0409322 0.0409322 0.0101116 0.0101116 0.0101116 0.0101116 0.751168 0.751168 0.751168 0.751168 0.69631 0.69631 0.69631 0.69631 0.676654 0.676654 0.676654 0.676654 0.722584 0.722584 0.722584 0.722584 0.637098 0.637098 0.637098 0.637098 0.548642 0.548642 0.548642 0.548642 0.755637 0.755637 0.755637 0.755637 0.735017 0.735017 0.735017 0.735017 0.413166 0.413166 0.413166 0.413166 0.534486 0.534486 0.534486 0.534486 0.18432 0.18432 0.18432 0.18432 0.338455 0.338455 0.338455 0.338455 0.670792 0.670792 0.670792 0.670792 0.753323 0.753323 0.753323 0.753323 0.53226 0.53226 0.53226 0.53226 0.690431 0.690431 0.690431 0.690431 0.416923 0.416923 0.416923 0.416923 0.277138 0.277138 0.277138 0.277138 0.641148 0.641148 0.641148 0.641148 0.516633 0.516633 0.516633 0.516633 0.176092 0.176092 0.176092 0.176092 0.117233 0.117233 0.117233 0.117233 0.418025 0.418025 0.418025 0.418025 0.359015 0.359015 0.359015 0.359015 0.761079 0.761079 0.761079 0.761079 0.723708 0.723708 0.723708 0.723708 0.787074 0.787074 0.787074 0.787074 0.839162 0.839162 0.839162 0.839162 0.688782 0.688782 0.688782 0.688782 0.667012 0.667012 0.667012 0.667012 0.869362 0.869362 0.869362 0.869362 0.886081 0.886081 0.886081 0.886081 0 0 0 0 0 0 0 0 0.000669198 0.000669198 0.000669198 0.000669198 0.000311989 0.000311989 0.000311989 0.000311989 0 0 0 0 0 0 0 0 0.000159426 0.000159426 0.000159426 0.000159426 0.000217317 0.000217317 0.000217317 0.000217317 0.0395581 0.0395581 0.0395581 0.0395581 0.0318256 0.0318256 0.0318256 0.0318256 0.188178 0.188178 0.188178 0.188178 0.173338 0.173338 0.173338 0.173338 0.0224722 0.0224722 0.0224722 0.0224722 0.0160694 0.0160694 0.0160694 0.0160694 0.147871 0.147871 0.147871 0.147871 0.120136 0.120136 0.120136 0.120136 0.000664238 0.000664238 0.000664238 0.000664238 0.0103702 0.0103702 0.0103702 0.0103702 0.005067 0.005067 0.005067 0.005067 0.0337891 0.0337891 0.0337891 0.0337891 0.0886274 0.0886274 0.0886274 0.0886274 0.255522 0.255522 0.255522 0.255522 0.133377 0.133377 0.133377 0.133377 0.302237 0.302237 0.302237 0.302237 0.0290068 0.0290068 0.0290068 0.0290068 0.0955939 0.0955939 0.0955939 0.0955939 0.132098 0.132098 0.132098 0.132098 0.228146 0.228146 0.228146 0.228146 0.230859 0.230859 0.230859 0.230859 0.398215 0.398215 0.398215 0.398215 0.39155 0.39155 0.39155 0.39155 0.550079 0.550079 0.550079 0.550079 0.464893 0.464893 0.464893 0.464893 0.44355 0.44355 0.44355 0.44355 0.760912 0.760912 0.760912 0.760912 0.74312 0.74312 0.74312 0.74312 0.404732 0.404732 0.404732 0.404732 0.355037 0.355037 0.355037 0.355037 0.709758 0.709758 0.709758 0.709758 0.655244 0.655244 0.655244 0.655244 0.941693 0.941693 0.941693 0.941693 0.932713 0.932713 0.932713 0.932713 0.999129 0.999129 0.999129 0.999129 0.999143 0.999143 0.999143 0.999143 0.915382 0.915382 0.915382 0.915382 0.875989 0.875989 0.875989 0.875989 0.996512 0.996512 0.996512 0.996512 0.980307 0.980307 0.980307 0.980307 0.35319 0.35319 0.35319 0.35319 0.446884 0.446884 0.446884 0.446884 0.633829 0.633829 0.633829 0.633829 0.690513 0.690513 0.690513 0.690513 0.606128 0.606128 0.606128 0.606128 0.738143 0.738143 0.738143 0.738143 0.800693 0.800693 0.800693 0.800693 0.889873 0.889873 0.889873 0.889873 0.84759 0.84759 0.84759 0.84759 0.868323 0.868323 0.868323 0.868323 0.95822 0.95822 0.95822 0.95822 0.958161 0.958161 0.958161 0.958161 0.922104 0.922104 0.922104 0.922104 0.962024 0.962024 0.962024 0.962024 0.975568 0.975568 0.975568 0.975568 0.981975 0.981975 0.981975 0.981975 0.458377 0.458377 0.458377 0.458377 0.599033 0.599033 0.599033 0.599033 0.480473 0.480473 0.480473 0.480473 0.587513 0.587513 0.587513 0.587513 0.653048 0.653048 0.653048 0.653048 0.667077 0.667077 0.667077 0.667077 0.614271 0.614271 0.614271 0.614271 0.609316 0.609316 0.609316 0.609316 0.528422 0.528422 0.528422 0.528422 0.567717 0.567717 0.567717 0.567717 0.614687 0.614687 0.614687 0.614687 0.557974 0.557974 0.557974 0.557974 0.528677 0.528677 0.528677 0.528677 0.488393 0.488393 0.488393 0.488393 0.439227 0.439227 0.439227 0.439227 0.350732 0.350732 0.350732 0.350732 0.658064 0.658064 0.658064 0.658064 0.584542 0.584542 0.584542 0.584542 0.598681 0.598681 0.598681 0.598681 0.552157 0.552157 0.552157 0.552157 0.434644 0.434644 0.434644 0.434644 0.251299 0.251299 0.251299 0.251299 0.437902 0.437902 0.437902 0.437902 0.277964 0.277964 0.277964 0.277964 0.482469 0.482469 0.482469 0.482469 0.485261 0.485261 0.485261 0.485261 0.352722 0.352722 0.352722 0.352722 0.417172 0.417172 0.417172 0.417172 0.443657 0.443657 0.443657 0.443657 0.33625 0.33625 0.33625 0.33625 0.46238 0.46238 0.46238 0.46238 0.433131 0.433131 0.433131 0.433131 0.74274 0.74274 0.74274 0.74274 0.621178 0.621178 0.621178 0.621178 0.869792 0.869792 0.869792 0.869792 0.751855 0.751855 0.751855 0.751855 0.455803 0.455803 0.455803 0.455803 0.339149 0.339149 0.339149 0.339149 0.602219 0.602219 0.602219 0.602219 0.49942 0.49942 0.49942 0.49942 0.943235 0.943235 0.943235 0.943235 0.868694 0.868694 0.868694 0.868694 0.974118 0.974118 0.974118 0.974118 0.948291 0.948291 0.948291 0.948291 0.776413 0.776413 0.776413 0.776413 0.714279 0.714279 0.714279 0.714279 0.914056 0.914056 0.914056 0.914056 0.893775 0.893775 0.893775 0.893775 0.34085 0.34085 0.34085 0.34085 0.441392 0.441392 0.441392 0.441392 0.499893 0.499893 0.499893 0.499893 0.591319 0.591319 0.591319 0.591319 0.545181 0.545181 0.545181 0.545181 0.579497 0.579497 0.579497 0.579497 0.690508 0.690508 0.690508 0.690508 0.74072 0.74072 0.74072 0.74072 0.717164 0.717164 0.717164 0.717164 0.77369 0.77369 0.77369 0.77369 0.897271 0.897271 0.897271 0.897271 0.916395 0.916395 0.916395 0.916395 0.833093 0.833093 0.833093 0.833093 0.865069 0.865069 0.865069 0.865069 0.935292 0.935292 0.935292 0.935292 0.936299 0.936299 0.936299 0.936299 0.102256 0.102256 0.102256 0.102256 0.0257318 0.0257318 0.0257318 0.0257318 0.127908 0.127908 0.127908 0.127908 0.0386257 0.0386257 0.0386257 0.0386257 0.000539506 0.000539506 0.000539506 0.000539506 0 0 0 0 0.00564606 0.00564606 0.00564606 0.00564606 0.0129946 0.0129946 0.0129946 0.0129946 0.203776 0.203776 0.203776 0.203776 0.11515 0.11515 0.11515 0.11515 0.354131 0.354131 0.354131 0.354131 0.301647 0.301647 0.301647 0.301647 0.0958277 0.0958277 0.0958277 0.0958277 0.125981 0.125981 0.125981 0.125981 0.318594 0.318594 0.318594 0.318594 0.375559 0.375559 0.375559 0.375559 0.00368718 0.00368718 0.00368718 0.00368718 0.0238983 0.0238983 0.0238983 0.0238983 0.0504575 0.0504575 0.0504575 0.0504575 0.128528 0.128528 0.128528 0.128528 0.0616275 0.0616275 0.0616275 0.0616275 0.103179 0.103179 0.103179 0.103179 0.229648 0.229648 0.229648 0.229648 0.321194 0.321194 0.321194 0.321194 0.204953 0.204953 0.204953 0.204953 0.337016 0.337016 0.337016 0.337016 0.471605 0.471605 0.471605 0.471605 0.6008 0.6008 0.6008 0.6008 0.494532 0.494532 0.494532 0.494532 0.609508 0.609508 0.609508 0.609508 0.724457 0.724457 0.724457 0.724457 0.775011 0.775011 0.775011 0.775011 0.564744 0.564744 0.564744 0.564744 0.552797 0.552797 0.552797 0.552797 0.746772 0.746772 0.746772 0.746772 0.73787 0.73787 0.73787 0.73787 0.590028 0.590028 0.590028 0.590028 0.638859 0.638859 0.638859 0.638859 0.735654 0.735654 0.735654 0.735654 0.714809 0.714809 0.714809 0.714809 0.846136 0.846136 0.846136 0.846136 0.801565 0.801565 0.801565 0.801565 0.886919 0.886919 0.886919 0.886919 0.795349 0.795349 0.795349 0.795349 0.723605 0.723605 0.723605 0.723605 0.613311 0.613311 0.613311 0.613311 0.643968 0.643968 0.643968 0.643968 0.460432 0.460432 0.460432 0.460432 0.68578 0.68578 0.68578 0.68578 0.734385 0.734385 0.734385 0.734385 0.675781 0.675781 0.675781 0.675781 0.627834 0.627834 0.627834 0.627834 0.754745 0.754745 0.754745 0.754745 0.70225 0.70225 0.70225 0.70225 0.557186 0.557186 0.557186 0.557186 0.445736 0.445736 0.445736 0.445736 0.487547 0.487547 0.487547 0.487547 0.385639 0.385639 0.385639 0.385639 0.286353 0.286353 0.286353 0.286353 0.17278 0.17278 0.17278 0.17278 0.296728 0.296728 0.296728 0.296728 0.206236 0.206236 0.206236 0.206236 0.103507 0.103507 0.103507 0.103507 0.0596089 0.0596089 0.0596089 0.0596089 0.18432 0.18432 0.18432 0.18432 0.338455 0.338455 0.338455 0.338455 0.413166 0.413166 0.413166 0.413166 0.534486 0.534486 0.534486 0.534486 0.53226 0.53226 0.53226 0.53226 0.690431 0.690431 0.690431 0.690431 0.670792 0.670792 0.670792 0.670792 0.753323 0.753323 0.753323 0.753323 0.676654 0.676654 0.676654 0.676654 0.722584 0.722584 0.722584 0.722584 0.751168 0.751168 0.751168 0.751168 0.69631 0.69631 0.69631 0.69631 0.755637 0.755637 0.755637 0.755637 0.735017 0.735017 0.735017 0.735017 0.637098 0.637098 0.637098 0.637098 0.548642 0.548642 0.548642 0.548642 0.787074 0.787074 0.787074 0.787074 0.839162 0.839162 0.839162 0.839162 0.761079 0.761079 0.761079 0.761079 0.723708 0.723708 0.723708 0.723708 0.869362 0.869362 0.869362 0.869362 0.886081 0.886081 0.886081 0.886081 0.688782 0.688782 0.688782 0.688782 0.667012 0.667012 0.667012 0.667012 0.641148 0.641148 0.641148 0.641148 0.516633 0.516633 0.516633 0.516633 0.416923 0.416923 0.416923 0.416923 0.277138 0.277138 0.277138 0.277138 0.418025 0.418025 0.418025 0.418025 0.359015 0.359015 0.359015 0.359015 0.176092 0.176092 0.176092 0.176092 0.117233 0.117233 0.117233 0.117233 0.582277 0.582277 0.582277 0.582277 0.458638 0.458638 0.458638 0.458638 0.306365 0.306365 0.306365 0.306365 0.191275 0.191275 0.191275 0.191275 0.359693 0.359693 0.359693 0.359693 0.274466 0.274466 0.274466 0.274466 0.119401 0.119401 0.119401 0.119401 0.0767468 0.0767468 0.0767468 0.0767468 0.113455 0.113455 0.113455 0.113455 0.0448706 0.0448706 0.0448706 0.0448706 0.0214922 0.0214922 0.0214922 0.0214922 0.00300728 0.00300728 0.00300728 0.00300728 0.012747 0.012747 0.012747 0.012747 0.00236953 0.00236953 0.00236953 0.00236953 0 0 0 0 0 0 0 0 0.185234 0.185234 0.185234 0.185234 0.100956 0.100956 0.100956 0.100956 0.0433085 0.0433085 0.0433085 0.0433085 0.0199561 0.0199561 0.0199561 0.0199561 0.0409322 0.0409322 0.0409322 0.0409322 0.0101116 0.0101116 0.0101116 0.0101116 0.00620136 0.00620136 0.00620136 0.00620136 0.000908159 0.000908159 0.000908159 0.000908159 0.000396898 0.000396898 0.000396898 0.000396898 0.00015878 0.00015878 0.00015878 0.00015878 0 0 0 0 0 0 0 0 0 0 0 0 0 0 0 0 0 0 0 0 0 0 0 0 
