# vtk DataFile Version 3.0
#This file was generated by the deal.II library on 2016/3/9 at 8:35:04
ASCII
DATASET UNSTRUCTURED_GRID

POINTS 6608 double
0.125 0.375 0
0.25 0.375 0
0.125 0.5 0
0.25 0.5 0
1.75 0 0
1.875 0 0
1.75 0.125 0
1.875 0.125 0
1.875 0 0
2 0 0
1.875 0.125 0
2 0.125 0
0.125 0.5 0
0.25 0.5 0
0.125 0.625 0
0.25 0.625 0
1.75 0.875 0
1.875 0.875 0
1.75 1 0
1.875 1 0
1.875 0.875 0
2 0.875 0
1.875 1 0
2 1 0
0.125 0 0
0.1875 0 0
0.125 0.0625 0
0.1875 0.0625 0
0.1875 0 0
0.25 0 0
0.1875 0.0625 0
0.25 0.0625 0
0.25 0 0
0.3125 0 0
0.25 0.0625 0
0.3125 0.0625 0
0.3125 0 0
0.375 0 0
0.3125 0.0625 0
0.375 0.0625 0
0.375 0 0
0.4375 0 0
0.375 0.0625 0
0.4375 0.0625 0
0.4375 0.0625 0
0.5 0.0625 0
0.4375 0.125 0
0.5 0.125 0
0.125 0.3125 0
0.1875 0.3125 0
0.125 0.375 0
0.1875 0.375 0
0.1875 0.3125 0
0.25 0.3125 0
0.1875 0.375 0
0.25 0.375 0
0.25 0.3125 0
0.3125 0.3125 0
0.25 0.375 0
0.3125 0.375 0
0.625 0.4375 0
0.6875 0.4375 0
0.625 0.5 0
0.6875 0.5 0
0.6875 0.4375 0
0.75 0.4375 0
0.6875 0.5 0
0.75 0.5 0
0.75 0.4375 0
0.8125 0.4375 0
0.75 0.5 0
0.8125 0.5 0
1.1875 0 0
1.25 0 0
1.1875 0.0625 0
1.25 0.0625 0
1.25 0 0
1.3125 0 0
1.25 0.0625 0
1.3125 0.0625 0
1.3125 0 0
1.375 0 0
1.3125 0.0625 0
1.375 0.0625 0
1.375 0 0
1.4375 0 0
1.375 0.0625 0
1.4375 0.0625 0
1.4375 0 0
1.5 0 0
1.4375 0.0625 0
1.5 0.0625 0
1.3125 0.3125 0
1.375 0.3125 0
1.3125 0.375 0
1.375 0.375 0
1.5 0 0
1.5625 0 0
1.5 0.0625 0
1.5625 0.0625 0
1.5625 0 0
1.625 0 0
1.5625 0.0625 0
1.625 0.0625 0
1.5625 0.0625 0
1.625 0.0625 0
1.5625 0.125 0
1.625 0.125 0
1.75 0.125 0
1.8125 0.125 0
1.75 0.1875 0
1.8125 0.1875 0
1.8125 0.125 0
1.875 0.125 0
1.8125 0.1875 0
1.875 0.1875 0
0.125 0.625 0
0.1875 0.625 0
0.125 0.6875 0
0.1875 0.6875 0
0.1875 0.625 0
0.25 0.625 0
0.1875 0.6875 0
0.25 0.6875 0
0.25 0.625 0
0.3125 0.625 0
0.25 0.6875 0
0.3125 0.6875 0
0.125 0.9375 0
0.1875 0.9375 0
0.125 1 0
0.1875 1 0
0.1875 0.9375 0
0.25 0.9375 0
0.1875 1 0
0.25 1 0
0.25 0.9375 0
0.3125 0.9375 0
0.25 1 0
0.3125 1 0
0.3125 0.9375 0
0.375 0.9375 0
0.3125 1 0
0.375 1 0
0.4375 0.875 0
0.5 0.875 0
0.4375 0.9375 0
0.5 0.9375 0
0.375 0.9375 0
0.4375 0.9375 0
0.375 1 0
0.4375 1 0
0.625 0.5 0
0.6875 0.5 0
0.625 0.5625 0
0.6875 0.5625 0
0.6875 0.5 0
0.75 0.5 0
0.6875 0.5625 0
0.75 0.5625 0
0.75 0.5 0
0.8125 0.5 0
0.75 0.5625 0
0.8125 0.5625 0
1.3125 0.625 0
1.375 0.625 0
1.3125 0.6875 0
1.375 0.6875 0
1.1875 0.9375 0
1.25 0.9375 0
1.1875 1 0
1.25 1 0
1.25 0.9375 0
1.3125 0.9375 0
1.25 1 0
1.3125 1 0
1.3125 0.9375 0
1.375 0.9375 0
1.3125 1 0
1.375 1 0
1.375 0.9375 0
1.4375 0.9375 0
1.375 1 0
1.4375 1 0
1.4375 0.9375 0
1.5 0.9375 0
1.4375 1 0
1.5 1 0
1.5625 0.875 0
1.625 0.875 0
1.5625 0.9375 0
1.625 0.9375 0
1.5 0.9375 0
1.5625 0.9375 0
1.5 1 0
1.5625 1 0
1.5625 0.9375 0
1.625 0.9375 0
1.5625 1 0
1.625 1 0
1.75 0.8125 0
1.8125 0.8125 0
1.75 0.875 0
1.8125 0.875 0
1.8125 0.8125 0
1.875 0.8125 0
1.8125 0.875 0
1.875 0.875 0
0 0 0
0.0625 0 0
0 0.0625 0
0.0625 0.0625 0
0.0625 0 0
0.125 0 0
0.0625 0.0625 0
0.125 0.0625 0
0 0.0625 0
0.0625 0.0625 0
0 0.125 0
0.0625 0.125 0
0.0625 0.0625 0
0.125 0.0625 0
0.0625 0.125 0
0.125 0.125 0
0 0.375 0
0.0625 0.375 0
0 0.4375 0
0.0625 0.4375 0
0.0625 0.375 0
0.125 0.375 0
0.0625 0.4375 0
0.125 0.4375 0
0 0.4375 0
0.0625 0.4375 0
0 0.5 0
0.0625 0.5 0
0.0625 0.4375 0
0.125 0.4375 0
0.0625 0.5 0
0.125 0.5 0
0.25 0.375 0
0.3125 0.375 0
0.25 0.4375 0
0.3125 0.4375 0
0.3125 0.375 0
0.375 0.375 0
0.3125 0.4375 0
0.375 0.4375 0
0.25 0.4375 0
0.3125 0.4375 0
0.25 0.5 0
0.3125 0.5 0
0.3125 0.4375 0
0.375 0.4375 0
0.3125 0.5 0
0.375 0.5 0
0.375 0.375 0
0.4375 0.375 0
0.375 0.4375 0
0.4375 0.4375 0
0.4375 0.375 0
0.5 0.375 0
0.4375 0.4375 0
0.5 0.4375 0
0.375 0.4375 0
0.4375 0.4375 0
0.375 0.5 0
0.4375 0.5 0
0.4375 0.4375 0
0.5 0.4375 0
0.4375 0.5 0
0.5 0.5 0
0.5 0.375 0
0.5625 0.375 0
0.5 0.4375 0
0.5625 0.4375 0
0.5625 0.375 0
0.625 0.375 0
0.5625 0.4375 0
0.625 0.4375 0
0.5 0.4375 0
0.5625 0.4375 0
0.5 0.5 0
0.5625 0.5 0
0.5625 0.4375 0
0.625 0.4375 0
0.5625 0.5 0
0.625 0.5 0
1.625 0 0
1.6875 0 0
1.625 0.0625 0
1.6875 0.0625 0
1.6875 0 0
1.75 0 0
1.6875 0.0625 0
1.75 0.0625 0
1.625 0.0625 0
1.6875 0.0625 0
1.625 0.125 0
1.6875 0.125 0
1.6875 0.0625 0
1.75 0.0625 0
1.6875 0.125 0
1.75 0.125 0
1.875 0.125 0
1.9375 0.125 0
1.875 0.1875 0
1.9375 0.1875 0
1.9375 0.125 0
2 0.125 0
1.9375 0.1875 0
2 0.1875 0
1.875 0.1875 0
1.9375 0.1875 0
1.875 0.25 0
1.9375 0.25 0
1.9375 0.1875 0
2 0.1875 0
1.9375 0.25 0
2 0.25 0
0 0.5 0
0.0625 0.5 0
0 0.5625 0
0.0625 0.5625 0
0.0625 0.5 0
0.125 0.5 0
0.0625 0.5625 0
0.125 0.5625 0
0 0.5625 0
0.0625 0.5625 0
0 0.625 0
0.0625 0.625 0
0.0625 0.5625 0
0.125 0.5625 0
0.0625 0.625 0
0.125 0.625 0
0.25 0.5 0
0.3125 0.5 0
0.25 0.5625 0
0.3125 0.5625 0
0.3125 0.5 0
0.375 0.5 0
0.3125 0.5625 0
0.375 0.5625 0
0.25 0.5625 0
0.3125 0.5625 0
0.25 0.625 0
0.3125 0.625 0
0.3125 0.5625 0
0.375 0.5625 0
0.3125 0.625 0
0.375 0.625 0
0.375 0.5 0
0.4375 0.5 0
0.375 0.5625 0
0.4375 0.5625 0
0.4375 0.5 0
0.5 0.5 0
0.4375 0.5625 0
0.5 0.5625 0
0.375 0.5625 0
0.4375 0.5625 0
0.375 0.625 0
0.4375 0.625 0
0.4375 0.5625 0
0.5 0.5625 0
0.4375 0.625 0
0.5 0.625 0
0 0.875 0
0.0625 0.875 0
0 0.9375 0
0.0625 0.9375 0
0.0625 0.875 0
0.125 0.875 0
0.0625 0.9375 0
0.125 0.9375 0
0 0.9375 0
0.0625 0.9375 0
0 1 0
0.0625 1 0
0.0625 0.9375 0
0.125 0.9375 0
0.0625 1 0
0.125 1 0
0.5 0.5 0
0.5625 0.5 0
0.5 0.5625 0
0.5625 0.5625 0
0.5625 0.5 0
0.625 0.5 0
0.5625 0.5625 0
0.625 0.5625 0
0.5 0.5625 0
0.5625 0.5625 0
0.5 0.625 0
0.5625 0.625 0
0.5625 0.5625 0
0.625 0.5625 0
0.5625 0.625 0
0.625 0.625 0
1.625 0.875 0
1.6875 0.875 0
1.625 0.9375 0
1.6875 0.9375 0
1.6875 0.875 0
1.75 0.875 0
1.6875 0.9375 0
1.75 0.9375 0
1.625 0.9375 0
1.6875 0.9375 0
1.625 1 0
1.6875 1 0
1.6875 0.9375 0
1.75 0.9375 0
1.6875 1 0
1.75 1 0
1.875 0.75 0
1.9375 0.75 0
1.875 0.8125 0
1.9375 0.8125 0
1.9375 0.75 0
2 0.75 0
1.9375 0.8125 0
2 0.8125 0
1.875 0.8125 0
1.9375 0.8125 0
1.875 0.875 0
1.9375 0.875 0
1.9375 0.8125 0
2 0.8125 0
1.9375 0.875 0
2 0.875 0
0.125 0.0625 0
0.15625 0.0625 0
0.125 0.09375 0
0.15625 0.09375 0
0.15625 0.0625 0
0.1875 0.0625 0
0.15625 0.09375 0
0.1875 0.09375 0
0.125 0.09375 0
0.15625 0.09375 0
0.125 0.125 0
0.15625 0.125 0
0.15625 0.09375 0
0.1875 0.09375 0
0.15625 0.125 0
0.1875 0.125 0
0.1875 0.0625 0
0.21875 0.0625 0
0.1875 0.09375 0
0.21875 0.09375 0
0.21875 0.0625 0
0.25 0.0625 0
0.21875 0.09375 0
0.25 0.09375 0
0.1875 0.09375 0
0.21875 0.09375 0
0.1875 0.125 0
0.21875 0.125 0
0.21875 0.09375 0
0.25 0.09375 0
0.21875 0.125 0
0.25 0.125 0
0 0.125 0
0.03125 0.125 0
0 0.15625 0
0.03125 0.15625 0
0.03125 0.125 0
0.0625 0.125 0
0.03125 0.15625 0
0.0625 0.15625 0
0 0.15625 0
0.03125 0.15625 0
0 0.1875 0
0.03125 0.1875 0
0.03125 0.15625 0
0.0625 0.15625 0
0.03125 0.1875 0
0.0625 0.1875 0
0.0625 0.125 0
0.09375 0.125 0
0.0625 0.15625 0
0.09375 0.15625 0
0.09375 0.125 0
0.125 0.125 0
0.09375 0.15625 0
0.125 0.15625 0
0.0625 0.15625 0
0.09375 0.15625 0
0.0625 0.1875 0
0.09375 0.1875 0
0.09375 0.15625 0
0.125 0.15625 0
0.09375 0.1875 0
0.125 0.1875 0
0 0.1875 0
0.03125 0.1875 0
0 0.21875 0
0.03125 0.21875 0
0.03125 0.1875 0
0.0625 0.1875 0
0.03125 0.21875 0
0.0625 0.21875 0
0 0.21875 0
0.03125 0.21875 0
0 0.25 0
0.03125 0.25 0
0.03125 0.21875 0
0.0625 0.21875 0
0.03125 0.25 0
0.0625 0.25 0
0.0625 0.1875 0
0.09375 0.1875 0
0.0625 0.21875 0
0.09375 0.21875 0
0.09375 0.1875 0
0.125 0.1875 0
0.09375 0.21875 0
0.125 0.21875 0
0.0625 0.21875 0
0.09375 0.21875 0
0.0625 0.25 0
0.09375 0.25 0
0.09375 0.21875 0
0.125 0.21875 0
0.09375 0.25 0
0.125 0.25 0
0.125 0.125 0
0.15625 0.125 0
0.125 0.15625 0
0.15625 0.15625 0
0.15625 0.125 0
0.1875 0.125 0
0.15625 0.15625 0
0.1875 0.15625 0
0.125 0.15625 0
0.15625 0.15625 0
0.125 0.1875 0
0.15625 0.1875 0
0.15625 0.15625 0
0.1875 0.15625 0
0.15625 0.1875 0
0.1875 0.1875 0
0.1875 0.125 0
0.21875 0.125 0
0.1875 0.15625 0
0.21875 0.15625 0
0.21875 0.125 0
0.25 0.125 0
0.21875 0.15625 0
0.25 0.15625 0
0.1875 0.15625 0
0.21875 0.15625 0
0.1875 0.1875 0
0.21875 0.1875 0
0.21875 0.15625 0
0.25 0.15625 0
0.21875 0.1875 0
0.25 0.1875 0
0.125 0.1875 0
0.15625 0.1875 0
0.125 0.21875 0
0.15625 0.21875 0
0.15625 0.1875 0
0.1875 0.1875 0
0.15625 0.21875 0
0.1875 0.21875 0
0.125 0.21875 0
0.15625 0.21875 0
0.125 0.25 0
0.15625 0.25 0
0.15625 0.21875 0
0.1875 0.21875 0
0.15625 0.25 0
0.1875 0.25 0
0.1875 0.1875 0
0.21875 0.1875 0
0.1875 0.21875 0
0.21875 0.21875 0
0.21875 0.1875 0
0.25 0.1875 0
0.21875 0.21875 0
0.25 0.21875 0
0.1875 0.21875 0
0.21875 0.21875 0
0.1875 0.25 0
0.21875 0.25 0
0.21875 0.21875 0
0.25 0.21875 0
0.21875 0.25 0
0.25 0.25 0
0.25 0.0625 0
0.28125 0.0625 0
0.25 0.09375 0
0.28125 0.09375 0
0.28125 0.0625 0
0.3125 0.0625 0
0.28125 0.09375 0
0.3125 0.09375 0
0.25 0.09375 0
0.28125 0.09375 0
0.25 0.125 0
0.28125 0.125 0
0.28125 0.09375 0
0.3125 0.09375 0
0.28125 0.125 0
0.3125 0.125 0
0.3125 0.0625 0
0.34375 0.0625 0
0.3125 0.09375 0
0.34375 0.09375 0
0.34375 0.0625 0
0.375 0.0625 0
0.34375 0.09375 0
0.375 0.09375 0
0.3125 0.09375 0
0.34375 0.09375 0
0.3125 0.125 0
0.34375 0.125 0
0.34375 0.09375 0
0.375 0.09375 0
0.34375 0.125 0
0.375 0.125 0
0.4375 0 0
0.46875 0 0
0.4375 0.03125 0
0.46875 0.03125 0
0.46875 0 0
0.5 0 0
0.46875 0.03125 0
0.5 0.03125 0
0.4375 0.03125 0
0.46875 0.03125 0
0.4375 0.0625 0
0.46875 0.0625 0
0.46875 0.03125 0
0.5 0.03125 0
0.46875 0.0625 0
0.5 0.0625 0
0.375 0.0625 0
0.40625 0.0625 0
0.375 0.09375 0
0.40625 0.09375 0
0.40625 0.0625 0
0.4375 0.0625 0
0.40625 0.09375 0
0.4375 0.09375 0
0.375 0.09375 0
0.40625 0.09375 0
0.375 0.125 0
0.40625 0.125 0
0.40625 0.09375 0
0.4375 0.09375 0
0.40625 0.125 0
0.4375 0.125 0
0.25 0.125 0
0.28125 0.125 0
0.25 0.15625 0
0.28125 0.15625 0
0.28125 0.125 0
0.3125 0.125 0
0.28125 0.15625 0
0.3125 0.15625 0
0.25 0.15625 0
0.28125 0.15625 0
0.25 0.1875 0
0.28125 0.1875 0
0.28125 0.15625 0
0.3125 0.15625 0
0.28125 0.1875 0
0.3125 0.1875 0
0.3125 0.125 0
0.34375 0.125 0
0.3125 0.15625 0
0.34375 0.15625 0
0.34375 0.125 0
0.375 0.125 0
0.34375 0.15625 0
0.375 0.15625 0
[...]
POINT_DATA 6608
SCALARS x_displacement double 1
LOOKUP_TABLE default
-0.861097 -2.15856 3.4781e-11 2.58015e-10 26.5407 26.7075 19.6091 20.2085 26.7075 26.653 20.2085 20.8212 3.4781e-11 2.58015e-10 0.861097 2.15856 -19.6091 -20.2085 -26.5407 -26.7075 -20.2085 -20.8212 -26.7075 -26.653 4.03938 5.58062 2.14787 3.16766 5.58062 6.7769 3.16766 4.05307 6.7769 7.65363 4.05307 4.82309 7.65363 8.29472 4.82309 5.49251 8.29472 8.76625 5.49251 6.06408 6.06408 6.59798 3.58741 4.24201 -1.73851 -2.26647 -0.861097 -1.50983 -2.26647 -2.99047 -1.50983 -2.15856 -2.99047 -3.11188 -2.15856 -3.18097 -5.61447 -2.51365 4.19104e-09 3.98237e-09 -2.51365 -1.39391 3.98237e-09 2.58563e-09 -1.39391 -1.34331 2.58563e-09 1.33077e-09 16.4344 17.4943 13.3899 14.6151 17.4943 18.5677 14.6151 15.963 18.5677 19.7828 15.963 17.142 19.7828 21.0651 17.142 18.1536 21.0651 22.3814 18.1536 19.1221 5.97643 6.52582 3.55218 3.92171 22.3814 23.6696 19.1221 20.1357 23.6696 24.8822 20.1357 21.0595 20.1357 21.0595 16.5026 17.237 19.6091 19.9088 16.062 17.214 19.9088 20.2085 17.214 19.1799 0.861097 1.50983 1.73851 2.26647 1.50983 2.15856 2.26647 2.99047 2.15856 3.18097 2.99047 3.11188 -2.14787 -3.16766 -4.03938 -5.58062 -3.16766 -4.05307 -5.58062 -6.7769 -4.05307 -4.82309 -6.7769 -7.65363 -4.82309 -5.49251 -7.65363 -8.29472 -3.58741 -4.24201 -6.06408 -6.59798 -5.49251 -6.06408 -8.29472 -8.76625 4.19104e-09 3.98237e-09 5.61447 2.51365 3.98237e-09 2.58563e-09 2.51365 1.39391 2.58563e-09 1.33077e-09 1.39391 1.34331 -3.55218 -3.92171 -5.97643 -6.52582 -13.3899 -14.6151 -16.4344 -17.4943 -14.6151 -15.963 -17.4943 -18.5677 -15.963 -17.142 -18.5677 -19.7828 -17.142 -18.1536 -19.7828 -21.0651 -18.1536 -19.1221 -21.0651 -22.3814 -16.5026 -17.237 -20.1357 -21.0595 -19.1221 -20.1357 -22.3814 -23.6696 -20.1357 -21.0595 -23.6696 -24.8822 -16.062 -17.214 -19.6091 -19.9088 -17.214 -19.1799 -19.9088 -20.2085 0 2.18759 0 1.02309 2.18759 4.03938 1.02309 2.14787 0 1.02309 0 0.217169 1.02309 2.14787 0.217169 0.537393 0 -0.304637 0 -0.17571 -0.304637 -0.861097 -0.17571 -0.430549 0 -0.17571 0 6.73033e-11 -0.17571 -0.430549 6.73033e-11 3.4781e-11 -2.15856 -3.18097 -1.07928 -1.27797 -3.18097 -2.89035 -1.27797 -1.60728 -1.07928 -1.27797 2.58015e-10 3.3597e-10 -1.27797 -1.60728 3.3597e-10 3.46366e-10 -2.89035 -3.04294 -1.60728 -2.07081 -3.04294 -3.59069 -2.07081 -3.23741 -1.60728 -2.07081 3.46366e-10 3.0592e-10 -2.07081 -3.23741 3.0592e-10 8.81215e-10 -3.59069 -3.2378 -3.23741 -5.68664 -3.2378 -3.26631 -5.68664 -5.61447 -3.23741 -5.68664 8.81215e-10 4.43668e-09 -5.68664 -5.61447 4.43668e-09 4.19104e-09 24.8822 25.8516 21.0595 22.095 25.8516 26.5407 22.095 23.0749 21.0595 22.095 17.237 18.4693 22.095 23.0749 18.4693 19.6091 20.2085 20.5148 19.1799 18.4719 20.5148 20.8212 18.4719 18.1215 19.1799 18.4719 14.9512 15.1565 18.4719 18.1215 15.1565 14.9604 0 6.73033e-11 0 0.17571 6.73033e-11 3.4781e-11 0.17571 0.430549 0 0.17571 0 0.304637 0.17571 0.430549 0.304637 0.861097 2.58015e-10 3.3597e-10 1.07928 1.27797 3.3597e-10 3.46366e-10 1.27797 1.60728 1.07928 1.27797 2.15856 3.18097 1.27797 1.60728 3.18097 2.89035 3.46366e-10 3.0592e-10 1.60728 2.07081 3.0592e-10 8.81215e-10 2.07081 3.23741 1.60728 2.07081 2.89035 3.04294 2.07081 3.23741 3.04294 3.59069 0 -0.217169 0 -1.02309 -0.217169 -0.537393 -1.02309 -2.14787 0 -1.02309 0 -2.18759 -1.02309 -2.14787 -2.18759 -4.03938 8.81215e-10 4.43668e-09 3.23741 5.68664 4.43668e-09 4.19104e-09 5.68664 5.61447 3.23741 5.68664 3.59069 3.2378 5.68664 5.61447 3.2378 3.26631 -17.237 -18.4693 -21.0595 -22.095 -18.4693 -19.6091 -22.095 -23.0749 -21.0595 -22.095 -24.8822 -25.8516 -22.095 -23.0749 -25.8516 -26.5407 -14.9512 -15.1565 -19.1799 -18.4719 -15.1565 -14.9604 -18.4719 -18.1215 -19.1799 -18.4719 -20.2085 -20.5148 -18.4719 -18.1215 -20.5148 -20.8212 2.14787 2.65777 1.34263 1.71038 2.65777 3.16766 1.71038 2.07394 1.34263 1.71038 0.537393 0.720226 1.71038 2.07394 0.720226 0.9637 3.16766 3.61036 2.07394 2.44224 3.61036 4.05307 2.44224 2.80654 2.07394 2.44224 0.9637 1.25274 2.44224 2.80654 1.25274 1.57038 0 0.108585 0 -0.0652197 0.108585 0.217169 -0.0652197 -0.157469 0 -0.0652197 0 -0.1962 -0.0652197 -0.157469 -0.1962 -0.439967 0.217169 0.377281 -0.157469 -0.2579 0.377281 0.537393 -0.2579 -0.30842 -0.157469 -0.2579 -0.439967 -0.754807 -0.2579 -0.30842 -0.754807 -1.10401 0 -0.1962 0 -0.276113 -0.1962 -0.439967 -0.276113 -0.591211 0 -0.276113 0 -0.347657 -0.276113 -0.591211 -0.347657 -0.651443 -0.439967 -0.754807 -0.591211 -1.03491 -0.754807 -1.10401 -1.03491 -1.72768 -0.591211 -1.03491 -0.651443 -1.01746 -1.03491 -1.72768 -1.01746 -1.89014 0.537393 0.720226 -0.30842 -0.313697 0.720226 0.9637 -0.313697 -0.207061 -0.30842 -0.313697 -1.10401 -1.3481 -0.313697 -0.207061 -1.3481 -1.41385 0.9637 1.25274 -0.207061 0.00827481 1.25274 1.57038 0.00827481 0.300417 -0.207061 0.00827481 -1.41385 -1.27325 0.00827481 0.300417 -1.27325 -0.986699 -1.10401 -1.3481 -1.72768 -2.35526 -1.3481 -1.41385 -2.35526 -2.62641 -1.72768 -2.35526 -1.89014 -3.22355 -2.35526 -2.62641 -3.22355 -3.77595 -1.41385 -1.27325 -2.62641 -2.56778 -1.27325 -0.986699 -2.56778 -2.2667 -2.62641 -2.56778 -3.77595 -3.80802 -2.56778 -2.2667 -3.80802 -3.48241 4.05307 4.43808 2.80654 3.16688 4.43808 4.82309 3.16688 3.5152 2.80654 3.16688 1.57038 1.90392 3.16688 3.5152 1.90392 2.24867 4.82309 5.1578 3.5152 3.85705 5.1578 5.49251 3.85705 4.18493 3.5152 3.85705 2.24867 2.59134 3.85705 4.18493 2.59134 2.92908 8.76625 8.95691 7.41517 7.61146 8.95691 9.09961 7.61146 7.79572 7.41517 7.61146 6.06408 6.33103 7.61146 7.79572 6.33103 6.59798 5.49251 5.7783 4.18493 4.50909 5.7783 6.06408 4.50909 4.82575 4.18493 4.50909 2.92908 3.26155 4.50909 4.82575 3.26155 3.58741 1.57038 1.90392 0.300417 0.64286 1.90392 2.24867 0.64286 1.00727 0.300417 0.64286 -0.986699 -0.612021 0.64286 1.00727 -0.612021 -0.209928 2.24867 2.59134 1.00727 1.36435 2.59134 2.92908 1.36435 1.70741 1.00727 1.36435 -0.209928 0.174403 1.36435 1.70741 0.174403 0.519698 -0.986699 -0.612021 -2.2667 -1.83781 -0.612021 -0.209928 -1.83781 -1.38152 -2.2667 -1.83781 -3.48241 -2.99042 -1.83781 -1.38152 -2.99042 -2.50682 -0.209928 0.174403 -1.38152 -0.991461 0.174403 0.519698 -0.991461 -0.66539 -1.38152 -0.991461 -2.50682 -2.14726 -0.991461 -0.66539 -2.14726 -1.86528 2.92908 3.26155 1.70741 2.0424 3.26155 3.58741 2.0424 2.37826 1.70741 2.0424 0.519698 0.841838 2.0424 2.37826 0.841838 1.16037 3.58741 3.91471 2.37826 2.71332 3.91471 4.24201 2.71332 3.04914 2.37826 2.71332 1.16037 1.49335 2.71332 3.04914 1.49335 1.84178 0.519698 0.841838 -0.66539 -0.375074 0.841838 1.16037 -0.375074 -0.0833817 -0.66539 -0.375074 -1.86528 -1.61844 -0.375074 -0.0833817 -1.61844 -1.35306 1.16037 1.49335 -0.0833817 0.24381 1.49335 1.84178 0.24381 0.620638 -0.0833817 0.24381 -1.35306 -1.01914 0.24381 0.620638 -1.01914 -0.59338 0 -0.347657 0 -0.470453 -0.347657 -0.651443 -0.470453 -0.69628 0 -0.470453 0 -0.611658 -0.470453 -0.69628 -0.611658 -0.699855 -0.651443 -1.01746 -0.69628 -0.768117 -1.01746 -1.89014 -0.768117 -0.0236456 -0.69628 -0.768117 -0.699855 -0.981112 -0.768117 -0.0236456 -0.981112 -1.73851 0 -0.611658 0 -0.131762 -0.611658 -0.699855 -0.131762 -0.387395 0 -0.131762 0 -0.152318 -0.131762 -0.387395 -0.152318 -0.304637 -0.699855 -0.981112 -0.387395 -0.811975 -0.981112 -1.73851 -0.811975 -1.2998 -0.387395 -0.811975 -0.304637 -0.582867 -0.811975 -1.2998 -0.582867 -0.861097 -1.89014 -3.22355 -0.0236456 -1.60988 -3.22355 -3.77595 -1.60988 -2.48662 -0.0236456 -1.60988 -1.73851 -2.00249 -1.60988 -2.48662 -2.00249 -2.26647 -3.77595 -3.80802 -2.48662 -3.03256 -3.80802 -3.48241 -3.03256 -3.53219 -2.48662 -3.03256 -2.26647 -2.62847 -3.03256 -3.53219 -2.62847 -2.99047 -3.48241 -2.99042 -3.53219 -3.65586 -2.99042 -2.50682 -3.65586 -3.47088 -3.53219 -3.65586 -2.99047 -3.05117 -3.65586 -3.47088 -3.05117 -3.11188 -2.50682 -2.14726 -3.47088 -3.29219 -2.14726 -1.86528 -3.29219 -3.08779 -3.47088 -3.29219 -3.11188 -4.22552 -3.29219 -3.08779 -4.22552 -4.24205 -3.11188 -4.22552 -3.14643 -3.31287 -4.22552 -4.24205 -3.31287 -3.4565 -3.14643 -3.31287 -3.18097 -3.03566 -3.31287 -3.4565 -3.03566 -2.89035 -1.86528 -1.61844 -3.08779 -2.88106 -1.61844 -1.35306 -2.88106 -2.64263 -3.08779 -2.88106 -4.24205 -4.14184 -2.88106 -2.64263 -4.14184 -3.92386 -1.35306 -1.01914 -2.64263 -2.2806 -1.01914 -0.59338 -2.2806 -1.7752 -2.64263 -2.2806 -3.92386 -3.50082 -2.2806 -1.7752 -3.50082 -2.85051 -4.24205 -4.14184 -3.4565 -3.45552 -4.14184 -3.92386 -3.45552 -3.33664 -3.4565 -3.45552 -2.89035 -2.96664 -3.45552 -3.33664 -2.96664 -3.04294 -3.92386 -3.50082 -3.33664 -3.09787 -3.50082 -2.85051 -3.09787 -2.78721 -3.33664 -3.09787 -3.04294 -3.31681 -3.09787 -2.78721 -3.31681 -3.59069 9.09961 9.22059 7.79572 7.9747 9.22059 9.34671 7.9747 8.16642 7.79572 7.9747 6.59798 6.83726 7.9747 8.16642 6.83726 7.09561 9.34671 9.50037 8.16642 8.39949 9.50037 9.71522 8.39949 8.7093 8.16642 8.39949 7.09561 7.38676 8.39949 8.7093 7.38676 7.73069 6.59798 6.83726 5.42 5.71204 6.83726 7.09561 5.71204 6.00958 5.42 5.71204 4.24201 4.56023 5.71204 6.00958 4.56023 4.88033 7.09561 7.38676 6.00958 6.32173 7.38676 7.73069 6.32173 6.65708 6.00958 6.32173 4.88033 5.20493 6.32173 6.65708 5.20493 5.53554 9.71522 10.0747 8.7093 9.13994 10.0747 10.6782 9.13994 9.63605 8.7093 9.13994 7.73069 8.12573 9.13994 9.63605 8.12573 8.52697 10.6782 11.2055 9.63605 10.0327 11.2055 11.4657 10.0327 10.2959 9.63605 10.0327 8.52697 8.86392 10.0327 10.2959 8.86392 9.13142 7.73069 8.12573 6.65708 7.01389 8.12573 8.52697 7.01389 7.3679 6.65708 7.01389 5.53554 5.87152 7.01389 7.3679 5.87152 6.2036 8.52697 8.86392 7.3679 7.68642 8.86392 9.13142 7.68642 7.97264 7.3679 7.68642 6.2036 6.52475 7.68642 7.97264 6.52475 6.83515 4.24201 4.56023 3.04914 3.38747 4.56023 4.88033 3.38747 3.72379 3.04914 3.38747 1.84178 2.20097 3.38747 3.72379 2.20097 2.5602 4.88033 5.20493 3.72379 4.05931 5.20493 5.53554 4.05931 4.39359 3.72379 4.05931 2.5602 2.91241 4.05931 4.39359 2.91241 3.25698 1.84178 2.20097 0.620638 1.02304 2.20097 2.5602 1.02304 1.41581 0.620638 1.02304 -0.59338 -0.13206 1.02304 1.41581 -0.13206 0.297648 2.5602 2.91241 1.41581 1.78567 2.91241 3.25698 1.78567 2.13892 1.41581 1.78567 0.297648 0.688527 1.78567 2.13892 0.688527 1.04517 5.53554 5.87152 4.39359 4.72676 5.87152 6.2036 4.72676 5.05965 4.39359 4.72676 3.25698 3.59649 4.72676 5.05965 3.59649 3.93447 6.2036 6.52475 5.05965 5.39138 6.52475 6.83515 5.39138 5.72041 5.05965 5.39138 3.93447 4.27251 5.39138 5.72041 4.27251 4.60972 3.25698 3.59649 2.13892 2.47996 3.59649 3.93447 2.47996 2.81675 2.13892 2.47996 1.04517 1.37697 2.47996 2.81675 1.37697 1.6969 3.93447 4.27251 2.81675 3.15472 4.27251 4.60972 3.15472 3.49483 2.81675 3.15472 1.6969 2.0231 3.15472 3.49483 2.0231 2.36132 11.4657 11.6211 10.2959 10.4945 11.6211 11.6813 10.4945 10.6926 10.2959 10.4945 9.13142 9.36946 10.4945 10.6926 9.36946 9.61415 11.6813 11.611 10.6926 10.9167 11.611 12.0407 10.9167 11.091 10.6926 10.9167 9.61415 9.87604 10.9167 11.091 9.87604 10.1692 9.13142 9.36946 7.97264 8.24698 9.36946 9.61415 8.24698 8.52623 7.97264 8.24698 6.83515 7.1404 8.24698 8.52623 7.1404 7.44651 9.61415 9.87604 8.52623 8.81848 9.87604 10.1692 8.81848 9.14274 8.52623 8.81848 7.44651 7.75961 8.81848 9.14274 7.75961 8.10261 12.0407 12.3171 11.091 11.1174 12.3171 12.9049 11.1174 10.8074 11.091 11.1174 10.1692 10.537 11.1174 10.8074 10.537 11.0689 12.9049 13.1938 10.8074 11.9072 13.1938 13.621 11.9072 12.5563 10.8074 11.9072 11.0689 11.5585 11.9072 12.5563 11.5585 11.8228 10.1692 10.537 9.14274 9.5498 10.537 11.0689 9.5498 10.0235 9.14274 9.5498 8.10261 8.49594 9.5498 10.0235 8.49594 8.90607 11.0689 11.5585 10.0235 10.413 11.5585 11.8228 10.413 10.6798 10.0235 10.413 8.90607 9.25355 10.413 10.6798 9.25355 9.52966 6.83515 7.1404 5.72041 6.0462 7.1404 7.44651 6.0462 6.36967 5.72041 6.0462 4.60972 4.94523 6.0462 6.36967 4.94523 5.28027 7.44651 7.75961 6.36967 6.69571 7.75961 8.10261 6.69571 7.03972 6.36967 6.69571 5.28027 5.61776 6.69571 7.03972 5.61776 5.96036 4.60972 4.94523 3.49483 3.83663 4.94523 5.28027 3.83663 4.17952 3.49483 3.83663 2.36132 2.71273 3.83663 4.17952 2.71273 3.07108 5.28027 5.61776 4.17952 4.52289 5.61776 5.96036 4.52289 4.86538 4.17952 4.52289 3.07108 3.42762 4.52289 4.86538 3.42762 3.77838 8.10261 8.49594 7.03972 7.40852 8.49594 8.90607 7.40852 7.77601 7.03972 7.40852 5.96036 6.30732 7.40852 7.77601 6.30732 6.64901 8.90607 9.25355 7.77601 8.10483 9.25355 9.52966 8.10483 8.3989 7.77601 8.10483 6.64901 6.97752 8.10483 8.3989 6.97752 7.29333 5.96036 6.30732 4.86538 5.20606 6.30732 6.64901 5.20606 5.54499 4.86538 5.20606 3.77838 4.12297 5.20606 5.54499 4.12297 4.46413 6.64901 6.97752 5.54499 5.88113 6.97752 7.29333 5.88113 6.21309 5.54499 5.88113 4.46413 4.80366 5.88113 6.21309 4.80366 5.14081 -0.59338 -0.13206 -1.7752 -1.24407 -0.13206 0.297648 -1.24407 -0.784943 -1.7752 -1.24407 -2.85051 -2.29659 -1.24407 -0.784943 -2.29659 -1.83399 0.297648 0.688527 -0.784943 -0.388426 0.688527 1.04517 -0.388426 -0.0419998 -0.784943 -0.388426 -1.83399 -1.45334 -0.388426 -0.0419998 -1.45334 -1.13621 -2.85051 -2.29659 -2.78721 -3.0181 -2.29659 -1.83399 -3.0181 -2.78494 -2.78721 -3.0181 -3.59069 -3.41425 -3.0181 -2.78494 -3.41425 -3.2378 -1.83399 -1.45334 -2.78494 -2.48606 -1.45334 -1.13621 -2.48606 -2.24634 -2.78494 -2.48606 -3.2378 -3.25205 -2.48606 -2.24634 -3.25205 -3.26631 1.04517 1.37697 -0.0419998 0.262762 1.37697 1.6969 0.262762 0.553403 -0.0419998 0.262762 -1.13621 -0.87431 0.262762 0.553403 -0.87431 -0.617303 1.6969 2.0231 0.553403 0.861096 2.0231 2.36132 0.861096 1.20474 0.553403 0.861096 -0.617303 -0.321897 0.861096 1.20474 -0.321897 0.0417747 -1.13621 -0.87431 -2.24634 -2.03518 -0.87431 -0.617303 -2.03518 -1.81151 -2.24634 -2.03518 -3.26631 -3.20078 -2.03518 -1.81151 -3.20078 -2.99925 -0.617303 -0.321897 -1.81151 -1.51358 -0.321897 0.0417747 -1.51358 -1.10961 -1.81151 -1.51358 -2.99925 -2.68343 -1.51358 -1.10961 -2.68343 -2.19273 -3.26631 -3.20078 -4.44039 -3.70144 -3.20078 -2.99925 -3.70144 -2.97436 -4.44039 -3.70144 -5.61447 -4.06406 -3.70144 -2.97436 -4.06406 -2.51365 -2.99925 -2.68343 -2.97436 -2.26208 -2.68343 -2.19273 -2.26208 -1.86902 -2.97436 -2.26208 -2.51365 -1.95378 -2.26208 -1.86902 -1.95378 -1.39391 2.36132 2.71273 1.20474 1.58346 2.71273 3.07108 1.58346 1.97446 1.20474 1.58346 0.0417747 0.466012 1.58346 1.97446 0.466012 0.903063 3.07108 3.42762 1.97446 2.35434 3.42762 3.77838 2.35434 2.71474 1.97446 2.35434 0.903063 1.3125 2.35434 2.71474 1.3125 1.67789 0.0417747 0.466012 -1.10961 -0.614675 0.466012 0.903063 -0.614675 -0.12313 -1.10961 -0.614675 -2.19273 -1.61401 -0.614675 -0.12313 -1.61401 -1.09633 0.903063 1.3125 -0.12313 0.297419 1.3125 1.67789 0.297419 0.649589 -0.12313 0.297419 -1.09633 -0.700836 0.297419 0.649589 -0.700836 -0.38807 3.77838 4.12297 2.71474 3.05877 4.12297 4.46413 3.05877 3.39571 2.71474 3.05877 1.67789 2.01171 3.05877 3.39571 2.01171 2.33084 4.46413 4.80366 3.39571 3.7321 4.80366 5.14081 3.7321 4.06878 3.39571 3.7321 2.33084 2.65258 3.7321 4.06878 2.65258 2.98312 1.67789 2.01171 0.649589 0.954826 2.01171 2.33084 0.954826 1.24445 0.649589 0.954826 -0.38807 -0.125268 0.954826 1.24445 -0.125268 0.130975 2.33084 2.65258 1.24445 1.54596 2.65258 2.98312 1.54596 1.87812 1.24445 1.54596 0.130975 0.41906 1.54596 1.87812 0.41906 0.767396 -2.19273 -1.61401 -1.86902 -2.05049 -1.61401 -1.09633 -2.05049 -1.88684 -1.86902 -2.05049 -1.39391 -1.36861 -2.05049 -1.88684 -1.36861 -1.34331 -1.09633 -0.700836 -1.88684 -1.66199 -0.700836 -0.38807 -1.66199 -1.44033 -1.88684 -1.66199 -1.34331 -2.38597 -1.66199 -1.44033 -2.38597 -2.42988 -1.34331 -2.38597 -0.671657 -0.875668 -2.38597 -2.42988 -0.875668 -1.04557 -0.671657 -0.875668 1.33077e-09 -6.26394e-11 -0.875668 -1.04557 -6.26394e-11 1.37996e-10 -0.38807 -0.125268 -1.44033 -1.2289 -0.125268 0.130975 -1.2289 -1.00604 -1.44033 -1.2289 -2.42988 -2.32 -1.2289 -1.00604 -2.32 -2.12655 0.130975 0.41906 -1.00604 -0.716997 0.41906 0.767396 -0.716997 -0.33277 -1.00604 -0.716997 -2.12655 -1.83174 -0.716997 -0.33277 -1.83174 -1.36501 -2.42988 -2.32 -1.04557 -1.07932 -2.32 -2.12655 -1.07932 -1.00759 -1.04557 -1.07932 1.37996e-10 1.12175e-10 -1.07932 -1.00759 1.12175e-10 9.94178e-12 -2.12655 -1.83174 -1.00759 -0.944277 -1.83174 -1.36501 -0.944277 -1.08362 -1.00759 -0.944277 9.94178e-12 2.8325e-10 -0.944277 -1.08362 2.8325e-10 4.57824e-10 13.621 14.0839 12.5563 12.9716 14.0839 14.5177 12.9716 13.2944 12.5563 12.9716 11.8228 11.9906 12.9716 13.2944 11.9906 12.1019 14.5177 14.9462 13.2944 13.6181 14.9462 15.3877 13.6181 14.002 13.2944 13.6181 12.1019 12.1776 13.6181 14.002 12.1776 12.38 11.8228 11.9906 10.6798 10.8919 11.9906 12.1019 10.8919 11.1043 10.6798 10.8919 9.52966 9.77752 10.8919 11.1043 9.77752 10.0318 12.1019 12.1776 11.1043 11.3367 12.1776 12.38 11.3367 11.5403 11.1043 11.3367 10.0318 10.2925 11.3367 11.5403 10.2925 10.5791 15.3877 15.8743 14.002 14.4192 15.8743 16.4344 14.4192 14.9121 14.002 14.4192 12.38 12.9023 14.4192 14.9121 12.9023 13.3899 12.38 12.9023 11.5403 11.6864 12.9023 13.3899 11.6864 11.8165 11.5403 11.6864 10.5791 10.9258 11.6864 11.8165 10.9258 11.4604 13.3899 14.0025 11.8165 11.727 14.0025 14.6151 11.727 13.196 11.8165 11.727 11.4604 12.1657 11.727 13.196 12.1657 12.8092 9.52966 9.77752 8.3989 8.68132 9.77752 10.0318 8.68132 8.96566 8.3989 8.68132 7.29333 7.60395 8.68132 8.96566 7.60395 7.91235 10.0318 10.2925 8.96566 9.25468 10.2925 10.5791 9.25468 9.56714 8.96566 9.25468 7.91235 8.22144 9.25468 9.56714 8.22144 8.55593 7.29333 7.60395 6.21309 6.54077 7.60395 7.91235 6.54077 6.8643 6.21309 6.54077 5.14081 5.4745 6.54077 6.8643 5.4745 5.80589 7.91235 8.22144 6.8643 7.1868 8.22144 8.55593 7.1868 7.52779 6.8643 7.1868 5.80589 6.13833 7.1868 7.52779 6.13833 6.47606 10.5791 10.9258 9.56714 9.9627 10.9258 11.4604 9.9627 10.4824 9.56714 9.9627 8.55593 8.95242 9.9627 10.4824 8.95242 9.41683 11.4604 12.1657 10.4824 11.0621 12.1657 12.8092 11.0621 11.5896 10.4824 11.0621 9.41683 9.89623 11.0621 11.5896 9.89623 10.35 8.55593 8.95242 7.52779 7.90303 8.95242 9.41683 7.90303 8.30712 7.52779 7.90303 6.47606 6.8225 7.90303 8.30712 6.8225 7.17256 9.41683 9.89623 8.30712 8.71169 9.89623 10.35 8.71169 9.1072 8.30712 8.71169 7.17256 7.52298 8.71169 9.1072 7.52298 7.86961 14.6151 15.2891 13.196 14.1156 15.2891 15.963 14.1156 14.7983 13.196 14.1156 12.8092 13.3521 14.1156 14.7983 13.3521 13.8349 15.963 16.5525 14.7983 15.3795 16.5525 17.142 15.3795 15.8822 14.7983 15.3795 13.8349 14.2934 15.3795 15.8822 14.2934 14.7165 17.142 17.6478 15.8822 16.341 17.6478 18.1536 16.341 16.742 15.8822 16.341 14.7165 15.0968 16.341 16.742 15.0968 15.4417 18.1536 18.6378 16.742 17.1069 18.6378 19.1221 17.1069 17.454 16.742 17.1069 15.4417 15.6823 17.1069 17.454 15.6823 15.8085 12.8092 13.3521 11.5896 12.0667 13.3521 13.8349 12.0667 12.5103 11.5896 12.0667 10.35 10.7767 12.0667 12.5103 10.7767 11.1839 13.8349 14.2934 12.5103 12.9344 14.2934 14.7165 12.9344 13.3334 12.5103 12.9344 11.1839 11.5757 12.9344 13.3334 11.5757 11.949 10.35 10.7767 9.1072 9.48956 10.7767 11.1839 9.48956 9.86145 9.1072 9.48956 7.86961 8.21199 9.48956 9.86145 8.21199 8.54892 11.1839 11.5757 9.86145 10.2226 11.5757 11.949 10.2226 10.5714 9.86145 10.2226 8.54892 8.88046 10.2226 10.5714 8.88046 9.20617 14.7165 15.0968 13.3334 13.7021 15.0968 15.4417 13.7021 14.0293 13.3334 13.7021 11.949 12.3 13.7021 14.0293 12.3 12.6163 15.4417 15.6823 14.0293 14.2916 15.6823 15.8085 14.2916 14.5315 14.0293 14.2916 12.6163 12.8977 14.2916 14.5315 12.8977 13.1685 11.949 12.3 10.5714 10.9066 12.3 12.6163 10.9066 11.2214 10.5714 10.9066 9.20617 9.52757 10.9066 11.2214 9.52757 9.84271 12.6163 12.8977 11.2214 11.5168 12.8977 13.1685 11.5168 11.8162 11.2214 11.5168 9.84271 10.1489 11.5168 11.8162 10.1489 10.4613 5.14081 5.4745 4.06878 4.40498 5.4745 5.80589 4.40498 4.73981 4.06878 4.40498 2.98312 3.3245 4.40498 4.73981 3.3245 3.66942 5.80589 6.13833 4.73981 5.07216 6.13833 6.47606 5.07216 5.40012 4.73981 5.07216 3.66942 4.00707 5.07216 5.40012 4.00707 4.33049 2.98312 3.3245 1.87812 2.24197 3.3245 3.66942 2.24197 2.61448 1.87812 2.24197 0.767396 1.17223 2.24197 2.61448 1.17223 1.58892 3.66942 4.00707 2.