# vtk DataFile Version 3.0
#This file was generated by the deal.II library on 2016/3/9 at 8:35:55
ASCII
DATASET UNSTRUCTURED_GRID

POINTS 32 double
0 0 0
0.5 0 0
0 0.5 0
0.5 0.5 0
0.5 0 0
1 0 0
0.5 0.5 0
1 0.5 0
1 0 0
1.5 0 0
1 0.5 0
1.5 0.5 0
1.5 0 0
2 0 0
1.5 0.5 0
2 0.5 0
0 0.5 0
0.5 0.5 0
0 1 0
0.5 1 0
0.5 0.5 0
1 0.5 0
0.5 1 0
1 1 0
1 0.5 0
1.5 0.5 0
1 1 0
1.5 1 0
1.5 0.5 0
2 0.5 0
1.5 1 0
2 1 0

CELLS 8 40
4	0	1	3	2
4	4	5	7	6
4	8	9	11	10
4	12	13	15	14
4	16	17	19	18
4	20	21	23	22
4	24	25	27	26
4	28	29	31	30

CELL_TYPES 8
 9 9 9 9 9 9 9 9
POINT_DATA 32
SCALARS x_displacement double 1
LOOKUP_TABLE default
0 27.3312 0 1.9285e-11 27.3312 58.0219 1.9285e-11 1.71101e-11 58.0219 85.8403 1.71101e-11 -1.1376e-11 85.8403 96.7123 -1.1376e-11 -4.62575e-11 0 1.9285e-11 0 -27.3312 1.9285e-11 1.71101e-11 -27.3312 -58.0219 1.71101e-11 -1.1376e-11 -58.0219 -85.8403 -1.1376e-11 -4.62575e-11 -85.8403 -96.7123 
SCALARS y_displacement double 1
LOOKUP_TABLE default
0 23.431 0 18.0883 23.431 76.3811 18.0883 72.3358 76.3811 166.468 72.3358 160.945 166.468 274.765 160.945 289.087 0 18.0883 0 23.431 18.0883 72.3358 23.431 76.3811 72.3358 160.945 76.3811 166.468 160.945 289.087 166.468 274.765 
