# vtk DataFile Version 3.0
#This file was generated by the deal.II library on 2016/3/9 at 8:36:03
ASCII
DATASET UNSTRUCTURED_GRID

POINTS 2048 double
0 0 0
0.0625 0 0
0 0.0625 0
0.0625 0.0625 0
0.0625 0 0
0.125 0 0
0.0625 0.0625 0
0.125 0.0625 0
0 0.0625 0
0.0625 0.0625 0
0 0.125 0
0.0625 0.125 0
0.0625 0.0625 0
0.125 0.0625 0
0.0625 0.125 0
0.125 0.125 0
0.125 0 0
0.1875 0 0
0.125 0.0625 0
0.1875 0.0625 0
0.1875 0 0
0.25 0 0
0.1875 0.0625 0
0.25 0.0625 0
0.125 0.0625 0
0.1875 0.0625 0
0.125 0.125 0
0.1875 0.125 0
0.1875 0.0625 0
0.25 0.0625 0
0.1875 0.125 0
0.25 0.125 0
0 0.125 0
0.0625 0.125 0
0 0.1875 0
0.0625 0.1875 0
0.0625 0.125 0
0.125 0.125 0
0.0625 0.1875 0
0.125 0.1875 0
0 0.1875 0
0.0625 0.1875 0
0 0.25 0
0.0625 0.25 0
0.0625 0.1875 0
0.125 0.1875 0
0.0625 0.25 0
0.125 0.25 0
0.125 0.125 0
0.1875 0.125 0
0.125 0.1875 0
0.1875 0.1875 0
0.1875 0.125 0
0.25 0.125 0
0.1875 0.1875 0
0.25 0.1875 0
0.125 0.1875 0
0.1875 0.1875 0
0.125 0.25 0
0.1875 0.25 0
0.1875 0.1875 0
0.25 0.1875 0
0.1875 0.25 0
0.25 0.25 0
0.25 0 0
0.3125 0 0
0.25 0.0625 0
0.3125 0.0625 0
0.3125 0 0
0.375 0 0
0.3125 0.0625 0
0.375 0.0625 0
0.25 0.0625 0
0.3125 0.0625 0
0.25 0.125 0
0.3125 0.125 0
0.3125 0.0625 0
0.375 0.0625 0
0.3125 0.125 0
0.375 0.125 0
0.375 0 0
0.4375 0 0
0.375 0.0625 0
0.4375 0.0625 0
0.4375 0 0
0.5 0 0
0.4375 0.0625 0
0.5 0.0625 0
0.375 0.0625 0
0.4375 0.0625 0
0.375 0.125 0
0.4375 0.125 0
0.4375 0.0625 0
0.5 0.0625 0
0.4375 0.125 0
0.5 0.125 0
0.25 0.125 0
0.3125 0.125 0
0.25 0.1875 0
0.3125 0.1875 0
0.3125 0.125 0
0.375 0.125 0
0.3125 0.1875 0
0.375 0.1875 0
0.25 0.1875 0
0.3125 0.1875 0
0.25 0.25 0
0.3125 0.25 0
0.3125 0.1875 0
0.375 0.1875 0
0.3125 0.25 0
0.375 0.25 0
0.375 0.125 0
0.4375 0.125 0
0.375 0.1875 0
0.4375 0.1875 0
0.4375 0.125 0
0.5 0.125 0
0.4375 0.1875 0
0.5 0.1875 0
0.375 0.1875 0
0.4375 0.1875 0
0.375 0.25 0
0.4375 0.25 0
0.4375 0.1875 0
0.5 0.1875 0
0.4375 0.25 0
0.5 0.25 0
0 0.25 0
0.0625 0.25 0
0 0.3125 0
0.0625 0.3125 0
0.0625 0.25 0
0.125 0.25 0
0.0625 0.3125 0
0.125 0.3125 0
0 0.3125 0
0.0625 0.3125 0
0 0.375 0
0.0625 0.375 0
0.0625 0.3125 0
0.125 0.3125 0
0.0625 0.375 0
0.125 0.375 0
0.125 0.25 0
0.1875 0.25 0
0.125 0.3125 0
0.1875 0.3125 0
0.1875 0.25 0
0.25 0.25 0
0.1875 0.3125 0
0.25 0.3125 0
0.125 0.3125 0
0.1875 0.3125 0
0.125 0.375 0
0.1875 0.375 0
0.1875 0.3125 0
0.25 0.3125 0
0.1875 0.375 0
0.25 0.375 0
0 0.375 0
0.0625 0.375 0
0 0.4375 0
0.0625 0.4375 0
0.0625 0.375 0
0.125 0.375 0
0.0625 0.4375 0
0.125 0.4375 0
0 0.4375 0
0.0625 0.4375 0
0 0.5 0
0.0625 0.5 0
0.0625 0.4375 0
0.125 0.4375 0
0.0625 0.5 0
0.125 0.5 0
0.125 0.375 0
0.1875 0.375 0
0.125 0.4375 0
0.1875 0.4375 0
0.1875 0.375 0
0.25 0.375 0
0.1875 0.4375 0
0.25 0.4375 0
0.125 0.4375 0
0.1875 0.4375 0
0.125 0.5 0
0.1875 0.5 0
0.1875 0.4375 0
0.25 0.4375 0
0.1875 0.5 0
0.25 0.5 0
0.25 0.25 0
0.3125 0.25 0
0.25 0.3125 0
0.3125 0.3125 0
0.3125 0.25 0
0.375 0.25 0
0.3125 0.3125 0
0.375 0.3125 0
0.25 0.3125 0
0.3125 0.3125 0
0.25 0.375 0
0.3125 0.375 0
0.3125 0.3125 0
0.375 0.3125 0
0.3125 0.375 0
0.375 0.375 0
0.375 0.25 0
0.4375 0.25 0
0.375 0.3125 0
0.4375 0.3125 0
0.4375 0.25 0
0.5 0.25 0
0.4375 0.3125 0
0.5 0.3125 0
0.375 0.3125 0
0.4375 0.3125 0
0.375 0.375 0
0.4375 0.375 0
0.4375 0.3125 0
0.5 0.3125 0
0.4375 0.375 0
0.5 0.375 0
0.25 0.375 0
0.3125 0.375 0
0.25 0.4375 0
0.3125 0.4375 0
0.3125 0.375 0
0.375 0.375 0
0.3125 0.4375 0
0.375 0.4375 0
0.25 0.4375 0
0.3125 0.4375 0
0.25 0.5 0
0.3125 0.5 0
0.3125 0.4375 0
0.375 0.4375 0
0.3125 0.5 0
0.375 0.5 0
0.375 0.375 0
0.4375 0.375 0
0.375 0.4375 0
0.4375 0.4375 0
0.4375 0.375 0
0.5 0.375 0
0.4375 0.4375 0
0.5 0.4375 0
0.375 0.4375 0
0.4375 0.4375 0
0.375 0.5 0
0.4375 0.5 0
0.4375 0.4375 0
0.5 0.4375 0
0.4375 0.5 0
0.5 0.5 0
0.5 0 0
0.5625 0 0
0.5 0.0625 0
0.5625 0.0625 0
0.5625 0 0
0.625 0 0
0.5625 0.0625 0
0.625 0.0625 0
0.5 0.0625 0
0.5625 0.0625 0
0.5 0.125 0
0.5625 0.125 0
0.5625 0.0625 0
0.625 0.0625 0
0.5625 0.125 0
0.625 0.125 0
0.625 0 0
0.6875 0 0
0.625 0.0625 0
0.6875 0.0625 0
0.6875 0 0
0.75 0 0
0.6875 0.0625 0
0.75 0.0625 0
0.625 0.0625 0
0.6875 0.0625 0
0.625 0.125 0
0.6875 0.125 0
0.6875 0.0625 0
0.75 0.0625 0
0.6875 0.125 0
0.75 0.125 0
0.5 0.125 0
0.5625 0.125 0
0.5 0.1875 0
0.5625 0.1875 0
0.5625 0.125 0
0.625 0.125 0
0.5625 0.1875 0
0.625 0.1875 0
0.5 0.1875 0
0.5625 0.1875 0
0.5 0.25 0
0.5625 0.25 0
0.5625 0.1875 0
0.625 0.1875 0
0.5625 0.25 0
0.625 0.25 0
0.625 0.125 0
0.6875 0.125 0
0.625 0.1875 0
0.6875 0.1875 0
0.6875 0.125 0
0.75 0.125 0
0.6875 0.1875 0
0.75 0.1875 0
0.625 0.1875 0
0.6875 0.1875 0
0.625 0.25 0
0.6875 0.25 0
0.6875 0.1875 0
0.75 0.1875 0
0.6875 0.25 0
0.75 0.25 0
0.75 0 0
0.8125 0 0
0.75 0.0625 0
0.8125 0.0625 0
0.8125 0 0
0.875 0 0
0.8125 0.0625 0
0.875 0.0625 0
0.75 0.0625 0
0.8125 0.0625 0
0.75 0.125 0
0.8125 0.125 0
0.8125 0.0625 0
0.875 0.0625 0
0.8125 0.125 0
0.875 0.125 0
0.875 0 0
0.9375 0 0
0.875 0.0625 0
0.9375 0.0625 0
0.9375 0 0
1 0 0
0.9375 0.0625 0
1 0.0625 0
0.875 0.0625 0
0.9375 0.0625 0
0.875 0.125 0
0.9375 0.125 0
0.9375 0.0625 0
1 0.0625 0
0.9375 0.125 0
1 0.125 0
0.75 0.125 0
0.8125 0.125 0
0.75 0.1875 0
0.8125 0.1875 0
0.8125 0.125 0
0.875 0.125 0
0.8125 0.1875 0
0.875 0.1875 0
0.75 0.1875 0
0.8125 0.1875 0
0.75 0.25 0
0.8125 0.25 0
0.8125 0.1875 0
0.875 0.1875 0
0.8125 0.25 0
0.875 0.25 0
0.875 0.125 0
0.9375 0.125 0
0.875 0.1875 0
0.9375 0.1875 0
0.9375 0.125 0
1 0.125 0
0.9375 0.1875 0
1 0.1875 0
0.875 0.1875 0
0.9375 0.1875 0
0.875 0.25 0
0.9375 0.25 0
0.9375 0.1875 0
1 0.1875 0
0.9375 0.25 0
1 0.25 0
0.5 0.25 0
0.5625 0.25 0
0.5 0.3125 0
0.5625 0.3125 0
0.5625 0.25 0
0.625 0.25 0
0.5625 0.3125 0
0.625 0.3125 0
0.5 0.3125 0
0.5625 0.3125 0
0.5 0.375 0
0.5625 0.375 0
0.5625 0.3125 0
0.625 0.3125 0
0.5625 0.375 0
0.625 0.375 0
0.625 0.25 0
0.6875 0.25 0
0.625 0.3125 0
0.6875 0.3125 0
0.6875 0.25 0
0.75 0.25 0
0.6875 0.3125 0
0.75 0.3125 0
0.625 0.3125 0
0.6875 0.3125 0
0.625 0.375 0
0.6875 0.375 0
0.6875 0.3125 0
0.75 0.3125 0
0.6875 0.375 0
0.75 0.375 0
0.5 0.375 0
0.5625 0.375 0
0.5 0.4375 0
0.5625 0.4375 0
0.5625 0.375 0
0.625 0.375 0
0.5625 0.4375 0
0.625 0.4375 0
0.5 0.4375 0
0.5625 0.4375 0
0.5 0.5 0
0.5625 0.5 0
0.5625 0.4375 0
0.625 0.4375 0
0.5625 0.5 0
0.625 0.5 0
0.625 0.375 0
0.6875 0.375 0
0.625 0.4375 0
0.6875 0.4375 0
0.6875 0.375 0
0.75 0.375 0
0.6875 0.4375 0
0.75 0.4375 0
0.625 0.4375 0
0.6875 0.4375 0
0.625 0.5 0
0.6875 0.5 0
0.6875 0.4375 0
0.75 0.4375 0
0.6875 0.5 0
0.75 0.5 0
0.75 0.25 0
0.8125 0.25 0
0.75 0.3125 0
0.8125 0.3125 0
0.8125 0.25 0
0.875 0.25 0
0.8125 0.3125 0
0.875 0.3125 0
0.75 0.3125 0
0.8125 0.3125 0
0.75 0.375 0
0.8125 0.375 0
0.8125 0.3125 0
0.875 0.3125 0
0.8125 0.375 0
0.875 0.375 0
0.875 0.25 0
0.9375 0.25 0
0.875 0.3125 0
0.9375 0.3125 0
0.9375 0.25 0
1 0.25 0
0.9375 0.3125 0
1 0.3125 0
0.875 0.3125 0
0.9375 0.3125 0
0.875 0.375 0
0.9375 0.375 0
0.9375 0.3125 0
1 0.3125 0
0.9375 0.375 0
1 0.375 0
0.75 0.375 0
0.8125 0.375 0
0.75 0.4375 0
0.8125 0.4375 0
0.8125 0.375 0
0.875 0.375 0
0.8125 0.4375 0
0.875 0.4375 0
0.75 0.4375 0
0.8125 0.4375 0
0.75 0.5 0
0.8125 0.5 0
0.8125 0.4375 0
0.875 0.4375 0
0.8125 0.5 0
0.875 0.5 0
0.875 0.375 0
0.9375 0.375 0
0.875 0.4375 0
0.9375 0.4375 0
0.9375 0.375 0
1 0.375 0
0.9375 0.4375 0
1 0.4375 0
0.875 0.4375 0
0.9375 0.4375 0
0.875 0.5 0
0.9375 0.5 0
0.9375 0.4375 0
1 0.4375 0
0.9375 0.5 0
1 0.5 0
1 0 0
1.0625 0 0
1 0.0625 0
1.0625 0.0625 0
1.0625 0 0
1.125 0 0
1.0625 0.0625 0
1.125 0.0625 0
1 0.0625 0
1.0625 0.0625 0
1 0.125 0
1.0625 0.125 0
1.0625 0.0625 0
1.125 0.0625 0
1.0625 0.125 0
1.125 0.125 0
1.125 0 0
1.1875 0 0
1.125 0.0625 0
1.1875 0.0625 0
1.1875 0 0
1.25 0 0
1.1875 0.0625 0
1.25 0.0625 0
1.125 0.0625 0
1.1875 0.0625 0
1.125 0.125 0
1.1875 0.125 0
1.1875 0.0625 0
1.25 0.0625 0
1.1875 0.125 0
1.25 0.125 0
1 0.125 0
1.0625 0.125 0
1 0.1875 0
1.0625 0.1875 0
1.0625 0.125 0
1.125 0.125 0
1.0625 0.1875 0
1.125 0.1875 0
1 0.1875 0
1.0625 0.1875 0
1 0.25 0
1.0625 0.25 0
1.0625 0.1875 0
1.125 0.1875 0
1.0625 0.25 0
1.125 0.25 0
1.125 0.125 0
1.1875 0.125 0
1.125 0.1875 0
1.1875 0.1875 0
1.1875 0.125 0
1.25 0.125 0
1.1875 0.1875 0
1.25 0.1875 0
1.125 0.1875 0
1.1875 0.1875 0
1.125 0.25 0
1.1875 0.25 0
1.1875 0.1875 0
1.25 0.1875 0
1.1875 0.25 0
1.25 0.25 0
1.25 0 0
1.3125 0 0
1.25 0.0625 0
1.3125 0.0625 0
1.3125 0 0
1.375 0 0
1.3125 0.0625 0
1.375 0.0625 0
1.25 0.0625 0
1.3125 0.0625 0
1.25 0.125 0
1.3125 0.125 0
1.3125 0.0625 0
1.375 0.0625 0
1.3125 0.125 0
1.375 0.125 0
1.375 0 0
1.4375 0 0
1.375 0.0625 0
1.4375 0.0625 0
1.4375 0 0
1.5 0 0
1.4375 0.0625 0
1.5 0.0625 0
1.375 0.0625 0
1.4375 0.0625 0
1.375 0.125 0
1.4375 0.125 0
1.4375 0.0625 0
1.5 0.0625 0
1.4375 0.125 0
1.5 0.125 0
1.25 0.125 0
1.3125 0.125 0
1.25 0.1875 0
1.3125 0.1875 0
1.3125 0.125 0
1.375 0.125 0
1.3125 0.1875 0
1.375 0.1875 0
1.25 0.1875 0
1.3125 0.1875 0
1.25 0.25 0
1.3125 0.25 0
1.3125 0.1875 0
1.375 0.1875 0
1.3125 0.25 0
1.375 0.25 0
1.375 0.125 0
1.4375 0.125 0
1.375 0.1875 0
1.4375 0.1875 0
1.4375 0.125 0
1.5 0.125 0
1.4375 0.1875 0
1.5 0.1875 0
1.375 0.1875 0
1.4375 0.1875 0
1.375 0.25 0
1.4375 0.25 0
1.4375 0.1875 0
1.5 0.1875 0
1.4375 0.25 0
1.5 0.25 0
1 0.25 0
1.0625 0.25 0
1 0.3125 0
1.0625 0.3125 0
1.0625 0.25 0
1.125 0.25 0
1.0625 0.3125 0
1.125 0.3125 0
1 0.3125 0
1.0625 0.3125 0
1 0.375 0
1.0625 0.375 0
1.0625 0.3125 0
1.125 0.3125 0
1.0625 0.375 0
1.125 0.375 0
1.125 0.25 0
1.1875 0.25 0
1.125 0.3125 0
1.1875 0.3125 0
1.1875 0.25 0
1.25 0.25 0
1.1875 0.3125 0
1.25 0.3125 0
1.125 0.3125 0
1.1875 0.3125 0
1.125 0.375 0
1.1875 0.375 0
1.1875 0.3125 0
1.25 0.3125 0
1.1875 0.375 0
1.25 0.375 0
1 0.375 0
1.0625 0.375 0
1 0.4375 0
1.0625 0.4375 0
1.0625 0.375 0
1.125 0.375 0
1.0625 0.4375 0
1.125 0.4375 0
1 0.4375 0
1.0625 0.4375 0
1 0.5 0
1.0625 0.5 0
1.0625 0.4375 0
1.125 0.4375 0
1.0625 0.5 0
1.125 0.5 0
1.125 0.375 0
1.1875 0.375 0
1.125 0.4375 0
1.1875 0.4375 0
1.1875 0.375 0
1.25 0.375 0
1.1875 0.4375 0
1.25 0.4375 0
1.125 0.4375 0
1.1875 0.4375 0
1.125 0.5 0
1.1875 0.5 0
1.1875 0.4375 0
1.25 0.4375 0
1.1875 0.5 0
1.25 0.5 0
[...]
POINT_DATA 2048
SCALARS x_displacement double 1
LOOKUP_TABLE default
0 2.454 0 1.00937 2.454 4.40954 1.00937 2.16735 0 1.00937 0 0.0253488 1.00937 2.16735 0.0253488 0.293087 4.40954 5.95858 2.16735 3.23923 5.95858 7.132 3.23923 4.2297 2.16735 3.23923 0.293087 0.870719 3.23923 4.2297 0.870719 1.67355 0 0.0253488 0 -0.966218 0.0253488 0.293087 -0.966218 -1.49798 0 -0.966218 0 -2.01776 -0.966218 -1.49798 -2.01776 -3.24075 0.293087 0.870719 -1.49798 -1.41017 0.870719 1.67355 -1.41017 -0.728465 -1.49798 -1.41017 -3.24075 -3.6301 -1.41017 -0.728465 -3.6301 -2.92362 7.132 7.99837 4.2297 5.11577 7.99837 8.68091 5.11577 5.87311 4.2297 5.11577 1.67355 2.54748 5.11577 5.87311 2.54748 3.31114 8.68091 9.31563 5.87311 6.54212 9.31563 10.0306 6.54212 7.21097 5.87311 6.54212 3.31114 3.93078 6.54212 7.21097 3.93078 4.45217 1.67355 2.54748 -0.728465 0.242523 2.54748 3.31114 0.242523 1.08346 -0.728465 0.242523 -2.92362 -1.64217 0.242523 1.08346 -1.64217 -0.651721 3.31114 3.93078 1.08346 1.67695 3.93078 4.45217 1.67695 2.08096 1.08346 1.67695 -0.651721 -0.0182003 1.67695 2.08096 -0.0182003 0.405909 0 -2.01776 0 -3.16435 -2.01776 -3.24075 -3.16435 -4.80223 0 -3.16435 0 -2.10432 -3.16435 -4.80223 -2.10432 -4.28009 -3.24075 -3.6301 -4.80223 -5.72046 -3.6301 -2.92362 -5.72046 -4.7022 -4.80223 -5.72046 -4.28009 -5.04937 -5.72046 -4.7022 -5.04937 -2.7359 0 -2.10432 0 -0.763011 -2.10432 -4.28009 -0.763011 -1.52417 0 -0.763011 0 -2.35822e-11 -0.763011 -1.52417 -2.35822e-11 9.01372e-12 -4.28009 -5.04937 -1.52417 -2.40462 -5.04937 -2.7359 -2.40462 -4.23492 -1.52417 -2.40462 9.01372e-12 -8.06226e-11 -2.40462 -4.23492 -8.06226e-11 -1.48483e-10 -2.92362 -1.64217 -4.7022 -2.79761 -1.64217 -0.651721 -2.79761 -1.64545 -4.7022 -2.79761 -2.7359 -2.55194 -2.79761 -1.64545 -2.55194 -1.7284 -0.651721 -0.0182003 -1.64545 -0.946902 -0.0182003 0.405909 -0.946902 -0.447575 -1.64545 -0.946902 -1.7284 -1.19633 -0.946902 -0.447575 -1.19633 -0.72116 -2.7359 -2.55194 -4.23492 -2.44834 -2.55194 -1.7284 -2.44834 -1.09817 -4.23492 -2.44834 -1.48483e-10 -2.03403e-10 -2.44834 -1.09817 -2.03403e-10 -3.04456e-11 -1.7284 -1.19633 -1.09817 -0.868183 -1.19633 -0.72116 -0.868183 -0.558189 -1.09817 -0.868183 -3.04456e-11 -2.59469e-11 -0.868183 -0.558189 -2.59469e-11 -1.97105e-11 10.0306 10.878 7.21097 7.9483 10.878 11.8395 7.9483 8.82284 7.21097 7.9483 4.45217 5.00658 7.9483 8.82284 5.00658 5.72862 11.8395 12.8726 8.82284 9.83252 12.8726 13.9285 9.83252 10.9195 8.82284 9.83252 5.72862 6.73057 9.83252 10.9195 6.73057 7.93099 4.45217 5.00658 2.08096 2.43953 5.00658 5.72862 2.43953 2.90236 2.08096 2.43953 0.405909 0.762754 2.43953 2.90236 0.762754 1.2022 5.72862 6.73057 2.90236 3.73403 6.73057 7.93099 3.73403 5.12976 2.90236 3.73403 1.2022 1.98202 3.73403 5.12976 1.98202 3.48323 13.9285 14.9949 10.9195 11.9641 14.9949 16.069 11.9641 12.8843 10.9195 11.9641 7.93099 9.03272 11.9641 12.8843 9.03272 9.84412 16.069 17.0799 12.8843 13.6787 17.0799 17.9663 13.6787 14.3762 12.8843 13.6787 9.84412 10.4823 13.6787 14.3762 10.4823 11.0754 7.93099 9.03272 5.12976 6.36795 9.03272 9.84412 6.36795 7.03005 5.12976 6.36795 3.48323 4.39767 6.36795 7.03005 4.39767 4.72331 9.84412 10.4823 7.03005 7.46747 10.4823 11.0754 7.46747 7.88248 7.03005 7.46747 4.72331 4.87541 7.46747 7.88248 4.87541 4.93412 0.405909 0.762754 -0.447575 0.0453311 0.762754 1.2022 0.0453311 0.662099 -0.447575 0.0453311 -0.72116 -0.217404 0.0453311 0.662099 -0.217404 0.361804 1.2022 1.98202 0.662099 1.55256 1.98202 3.48323 1.55256 2.50231 0.662099 1.55256 0.361804 0.968913 1.55256 2.50231 0.968913 1.41048 -0.72116 -0.217404 -0.558189 -0.223822 -0.217404 0.361804 -0.223822 0.119586 -0.558189 -0.223822 -1.97105e-11 -1.48396e-11 -0.223822 0.119586 -1.48396e-11 -1.16162e-11 0.361804 0.968913 0.119586 0.405352 0.968913 1.41048 0.405352 0.575337 0.119586 0.405352 -1.16162e-11 -1.02433e-11 0.405352 0.575337 -1.02433e-11 -1.17282e-11 3.48323 4.39767 2.50231 2.91394 4.39767 4.72331 2.91394 3.00264 2.50231 2.91394 1.41048 1.57362 2.91394 3.00264 1.57362 1.56538 4.72331 4.87541 3.00264 2.97012 4.87541 4.93412 2.97012 2.7872 3.00264 2.97012 1.56538 1.49418 2.97012 2.7872 1.49418 1.35471 1.41048 1.57362 0.575337 0.60846 1.57362 1.56538 0.60846 0.558332 0.575337 0.60846 -1.17282e-11 -1.56806e-11 0.60846 0.558332 -1.56806e-11 -1.99391e-11 1.56538 1.49418 0.558332 0.494341 1.49418 1.35471 0.494341 0.467646 0.558332 0.494341 -1.99391e-11 -2.39289e-11 0.494341 0.467646 -2.39289e-11 -2.80993e-11 17.9663 18.7225 14.3762 15.0388 18.7225 19.35 15.0388 15.6818 14.3762 15.0388 11.0754 11.7155 15.0388 15.6818 11.7155 12.4167 19.35 19.9087 15.6818 16.3496 19.9087 20.4821 16.3496 17.104 15.6818 16.3496 12.4167 13.1777 16.3496 17.104 13.1777 14.043 11.0754 11.7155 7.88248 8.41398 11.7155 12.4167 8.41398 9.13609 7.88248 8.41398 4.93412 5.09062 8.41398 9.13609 5.09062 5.69897 12.4167 13.1777 9.13609 9.95753 13.1777 14.043 9.95753 10.8481 9.13609 9.95753 5.69897 6.54439 9.95753 10.8481 6.54439 7.47075 20.4821 21.2197 17.104 18.0437 21.2197 22.0763 18.0437 19.0806 17.104 18.0437 14.043 15.0124 18.0437 19.0806 15.0124 16.0419 22.0763 23.0068 19.0806 20.2131 23.0068 23.5369 20.2131 21.2234 19.0806 20.2131 16.0419 17.0537 20.2131 21.2234 17.0537 18.0758 14.043 15.0124 10.8481 11.7817 15.0124 16.0419 11.7817 12.7561 10.8481 11.7817 7.47075 8.43264 11.7817 12.7561 8.43264 9.36526 16.0419 17.0537 12.7561 13.7224 17.0537 18.0758 13.7224 14.7148 12.7561 13.7224 9.36526 10.2533 13.7224 14.7148 10.2533 11.1702 4.93412 5.09062 2.7872 2.23445 5.09062 5.69897 2.23445 2.15582 2.7872 2.23445 1.35471 0.845271 2.23445 2.15582 0.845271 -1.20631 5.69897 6.54439 2.15582 3.04744 6.54439 7.47075 3.04744 4.04042 2.15582 3.04744 -1.20631 -0.396886 3.04744 4.04042 -0.396886 0.655004 1.35471 0.845271 0.467646 0.478786 0.845271 -1.20631 0.478786 1.37495 0.467646 0.478786 -2.80993e-11 -4.50616e-11 0.478786 1.37495 -4.50616e-11 -1.86544e-10 -1.20631 -0.396886 1.37495 -2.22157 -0.396886 0.655004 -2.22157 -2.07768 1.37495 -2.22157 -1.86544e-10 1.83001e-10 -2.22157 -2.07768 1.83001e-10 2.85598e-10 7.47075 8.43264 4.04042 5.00132 8.43264 9.36526 5.00132 5.87257 4.04042 5.00132 0.655004 1.58825 5.00132 5.87257 1.58825 2.34535 9.36526 10.2533 5.87257 6.70991 10.2533 11.1702 6.70991 7.59684 5.87257 6.70991 2.34535 3.10076 6.70991 7.59684 3.10076 3.95443 0.655004 1.58825 -2.07768 -1.72629 1.58825 2.34535 -1.72629 -1.19946 -2.07768 -1.72629 2.85598e-10 -6.98379e-11 -1.72629 -1.19946 -6.98379e-11 -1.31924e-10 2.34535 3.10076 -1.19946 -0.473846 3.10076 3.95443 -0.473846 0.483729 -1.19946 -0.473846 -1.31924e-10 -1.41569e-10 -0.473846 0.483729 -1.41569e-10 -9.3095e-11 23.5369 23.5478 21.2234 22.0655 23.5478 26.0557 22.0655 22.9636 21.2234 22.0655 18.0758 19.1838 22.0655 22.9636 19.1838 20.4762 26.0557 28.0491 22.9636 23.3332 28.0491 29.3805 23.3332 24.5881 22.9636 23.3332 20.4762 21.4742 23.3332 24.5881 21.4742 22.1941 18.0758 19.1838 14.7148 15.7701 19.1838 20.4762 15.7701 16.869 14.7148 15.7701 11.1702 12.1735 15.7701 16.869 12.1735 13.1831 20.4762 21.4742 16.869 17.8523 21.4742 22.1941 17.8523 18.7992 16.869 17.8523 13.1831 14.1419 17.8523 18.7992 14.1419 15.0772 29.3805 30.2776 24.5881 25.9214 30.2776 30.9831 25.9214 26.8143 24.5881 25.9214 22.1941 22.6261 25.9214 26.8143 22.6261 23.1621 30.9831 31.2796 26.8143 27.15 31.2796 31.305 27.15 27.1615 26.8143 27.15 23.1621 23.7327 27.15 27.1615 23.7327 23.5941 22.1941 22.6261 18.7992 19.6724 22.6261 23.1621 19.6724 20.2274 18.7992 19.6724 15.0772 16.1564 19.6724 20.2274 16.1564 17.661 23.1621 23.7327 20.2274 21.1398 23.7327 23.5941 21.1398 22.4477 20.2274 21.1398 17.661 19.5184 21.1398 22.4477 19.5184 20.3214 11.1702 12.1735 7.59684 8.54269 12.1735 13.1831 8.54269 9.4923 7.59684 8.54269 3.95443 4.91851 8.54269 9.4923 4.91851 5.89228 13.1831 14.1419 9.4923 10.4205 14.1419 15.0772 10.4205 11.3693 9.4923 10.4205 5.89228 6.79919 10.4205 11.3693 6.79919 7.68973 3.95443 4.91851 0.483729 1.57334 4.91851 5.89228 1.57334 2.54197 0.483729 1.57334 -9.3095e-11 -5.01131e-11 1.57334 2.54197 -5.01131e-11 -3.5478e-11 5.89228 6.79919 2.54197 3.30974 6.79919 7.68973 3.30974 3.94636 2.54197 3.30974 -3.5478e-11 -2.77321e-11 3.30974 3.94636 -2.77321e-11 -2.30882e-11 15.0772 16.1564 11.3693 12.4934 16.1564 17.661 12.4934 13.8985 11.3693 12.4934 7.68973 8.65236 12.4934 13.8985 8.65236 9.70441 17.661 19.5184 13.8985 15.1741 19.5184 20.3214 15.1741 15.6205 13.8985 15.1741 9.70441 10.4918 15.1741 15.6205 10.4918 10.7256 7.68973 8.65236 3.94636 4.51159 8.65236 9.70441 4.51159 5.02821 3.94636 4.51159 -2.30882e-11 -1.96003e-11 4.51159 5.02821 -1.96003e-11 -1.7345e-11 9.70441 10.4918 5.02821 5.53124 10.4918 10.7256 5.53124 5.61882 5.02821 5.53124 -1.7345e-11 -1.54434e-11 5.53124 5.61882 -1.54434e-11 -1.45805e-11 0 -2.35822e-11 0 0.763011 -2.35822e-11 9.01372e-12 0.763011 1.52417 0 0.763011 0 2.10432 0.763011 1.52417 2.10432 4.28009 9.01372e-12 -8.06226e-11 1.52417 2.40462 -8.06226e-11 -1.48483e-10 2.40462 4.23492 1.52417 2.40462 4.28009 5.04937 2.40462 4.23492 5.04937 2.7359 0 2.10432 0 3.16435 2.10432 4.28009 3.16435 4.80223 0 3.16435 0 2.01776 3.16435 4.80223 2.01776 3.24075 4.28009 5.04937 4.80223 5.72046 5.04937 2.7359 5.72046 4.7022 4.80223 5.72046 3.24075 3.6301 5.72046 4.7022 3.6301 2.92362 -1.48483e-10 -2.03403e-10 4.23492 2.44834 -2.03403e-10 -3.04456e-11 2.44834 1.09817 4.23492 2.44834 2.7359 2.55194 2.44834 1.09817 2.55194 1.7284 -3.04456e-11 -2.59469e-11 1.09817 0.868183 -2.59469e-11 -1.97105e-11 0.868183 0.558189 1.09817 0.868183 1.7284 1.19633 0.868183 0.558189 1.19633 0.72116 2.7359 2.55194 4.7022 2.79761 2.55194 1.7284 2.79761 1.64545 4.7022 2.79761 2.92362 1.64217 2.79761 1.64545 1.64217 0.651721 1.7284 1.19633 1.64545 0.946902 1.19633 0.72116 0.946902 0.447575 1.64545 0.946902 0.651721 0.0182003 0.946902 0.447575 0.0182003 -0.405909 0 2.01776 0 0.966218 2.01776 3.24075 0.966218 1.49798 0 0.966218 0 -0.0253488 0.966218 1.49798 -0.0253488 -0.293087 3.24075 3.6301 1.49798 1.41017 3.6301 2.92362 1.41017 0.728465 1.49798 1.41017 -0.293087 -0.870719 1.41017 0.728465 -0.870719 -1.67355 0 -0.0253488 0 -1.00937 -0.0253488 -0.293087 -1.00937 -2.16735 0 -1.00937 0 -2.454 -1.00937 -2.16735 -2.454 -4.40954 -0.293087 -0.870719 -2.16735 -3.23923 -0.870719 -1.67355 -3.23923 -4.2297 -2.16735 -3.23923 -4.40954 -5.95858 -3.23923 -4.2297 -5.95858 -7.132 2.92362 1.64217 0.728465 -0.242523 1.64217 0.651721 -0.242523 -1.08346 0.728465 -0.242523 -1.67355 -2.54748 -0.242523 -1.08346 -2.54748 -3.31114 0.651721 0.0182003 -1.08346 -1.67695 0.0182003 -0.405909 -1.67695 -2.08096 -1.08346 -1.67695 -3.31114 -3.93078 -1.67695 -2.08096 -3.93078 -4.45217 -1.67355 -2.54748 -4.2297 -5.11577 -2.54748 -3.31114 -5.11577 -5.87311 -4.2297 -5.11577 -7.132 -7.99837 -5.11577 -5.87311 -7.99837 -8.68091 -3.31114 -3.93078 -5.87311 -6.54212 -3.93078 -4.45217 -6.54212 -7.21097 -5.87311 -6.54212 -8.68091 -9.31563 -6.54212 -7.21097 -9.31563 -10.0306 -1.97105e-11 -1.48396e-11 0.558189 0.223822 -1.48396e-11 -1.16162e-11 0.223822 -0.119586 0.558189 0.223822 0.72116 0.217404 0.223822 -0.119586 0.217404 -0.361804 -1.16162e-11 -1.02433e-11 -0.119586 -0.405352 -1.02433e-11 -1.17282e-11 -0.405352 -0.575337 -0.119586 -0.405352 -0.361804 -0.968913 -0.405352 -0.575337 -0.968913 -1.41048 0.72116 0.217404 0.447575 -0.0453311 0.217404 -0.361804 -0.0453311 -0.662099 0.447575 -0.0453311 -0.405909 -0.762754 -0.0453311 -0.662099 -0.762754 -1.2022 -0.361804 -0.968913 -0.662099 -1.55256 -0.968913 -1.41048 -1.55256 -2.50231 -0.662099 -1.55256 -1.2022 -1.98202 -1.55256 -2.50231 -1.98202 -3.48323 -1.17282e-11 -1.56806e-11 -0.575337 -0.60846 -1.56806e-11 -1.99391e-11 -0.60846 -0.558332 -0.575337 -0.60846 -1.41048 -1.57362 -0.60846 -0.558332 -1.57362 -1.56538 -1.99391e-11 -2.39289e-11 -0.558332 -0.494341 -2.39289e-11 -2.80993e-11 -0.494341 -0.467646 -0.558332 -0.494341 -1.56538 -1.49418 -0.494341 -0.467646 -1.49418 -1.35471 -1.41048 -1.57362 -2.50231 -2.91394 -1.57362 -1.56538 -2.91394 -3.00264 -2.50231 -2.91394 -3.48323 -4.39767 -2.91394 -3.00264 -4.39767 -4.72331 -1.56538 -1.49418 -3.00264 -2.97012 -1.49418 -1.35471 -2.97012 -2.7872 -3.00264 -2.97012 -4.72331 -4.87541 -2.97012 -2.7872 -4.87541 -4.93412 -0.405909 -0.762754 -2.08096 -2.43953 -0.762754 -1.2022 -2.43953 -2.90236 -2.08096 -2.43953 -4.45217 -5.00658 -2.43953 -2.90236 -5.00658 -5.72862 -1.2022 -1.98202 -2.90236 -3.73403 -1.98202 -3.48323 -3.73403 -5.12976 -2.90236 -3.73403 -5.72862 -6.73057 -3.73403 -5.12976 -6.73057 -7.93099 -4.45217 -5.00658 -7.21097 -7.9483 -5.00658 -5.72862 -7.9483 -8.82284 -7.21097 -7.9483 -10.0306 -10.878 -7.9483 -8.82284 -10.878 -11.8395 -5.72862 -6.73057 -8.82284 -9.83252 -6.73057 -7.93099 -9.83252 -10.9195 -8.82284 -9.83252 -11.8395 -12.8726 -9.83252 -10.9195 -12.8726 -13.9285 -3.48323 -4.39767 -5.12976 -6.36795 -4.39767 -4.72331 -6.36795 -7.03005 -5.12976 -6.36795 -7.93099 -9.03272 -6.36795 -7.03005 -9.03272 -9.84412 -4.72331 -4.87541 -7.03005 -7.46747 -4.87541 -4.93412 -7.46747 -7.88248 -7.03005 -7.46747 -9.84412 -10.4823 -7.46747 -7.88248 -10.4823 -11.0754 -7.93099 -9.03272 -10.9195 -11.9641 -9.03272 -9.84412 -11.9641 -12.8843 -10.9195 -11.9641 -13.9285 -14.9949 -11.9641 -12.8843 -14.9949 -16.069 -9.84412 -10.4823 -12.8843 -13.6787 -10.4823 -11.0754 -13.6787 -14.3762 -12.8843 -13.6787 -16.069 -17.0799 -13.6787 -14.3762 -17.0799 -17.9663 -2.80993e-11 -4.50616e-11 -0.467646 -0.478786 -4.50616e-11 -1.86544e-10 -0.478786 -1.37495 -0.467646 -0.478786 -1.35471 -0.845271 -0.478786 -1.37495 -0.845271 1.20631 -1.86544e-10 1.83001e-10 -1.37495 2.22157 1.83001e-10 2.85598e-10 2.22157 2.07768 -1.37495 2.22157 1.20631 0.396886 2.22157 2.07768 0.396886 -0.655004 -1.35471 -0.845271 -2.7872 -2.23445 -0.845271 1.20631 -2.23445 -2.15582 -2.7872 -2.23445 -4.93412 -5.09062 -2.23445 -2.15582 -5.09062 -5.69897 1.20631 0.396886 -2.15582 -3.04744 0.396886 -0.655004 -3.04744 -4.04042 -2.15582 -3.04744 -5.69897 -6.54439 -3.04744 -4.04042 -6.54439 -7.47075 2.85598e-10 -6.98379e-11 2.07768 1.72629 -6.98379e-11 -1.31924e-10 1.72629 1.19946 2.07768 1.72629 -0.655004 -1.58825 1.72629 1.19946 -1.58825 -2.34535 -1.31924e-10 -1.41569e-10 1.19946 0.473846 -1.41569e-10 -9.3095e-11 0.473846 -0.483729 1.19946 0.473846 -2.34535 -3.10076 0.473846 -0.483729 -3.10076 -3.95443 -0.655004 -1.58825 -4.04042 -5.00132 -1.58825 -2.34535 -5.00132 -5.87257 -4.04042 -5.00132 -7.47075 -8.43264 -5.00132 -5.87257 -8.43264 -9.36526 -2.34535 -3.10076 -5.87257 -6.70991 -3.10076 -3.95443 -6.70991 -7.59684 -5.87257 -6.70991 -9.36526 -10.2533 -6.70991 -7.59684 -10.2533 -11.1702 -4.93412 -5.09062 -7.88248 -8.41398 -5.09062 -5.69897 -8.41398 -9.13609 -7.88248 -8.41398 -11.0754 -11.7155 -8.41398 -9.13609 -11.7155 -12.4167 -5.69897 -6.54439 -9.13609 -9.95753 -6.54439 -7.47075 -9.95753 -10.8481 -9.13609 -9.95753 -12.4167 -13.1777 -9.95753 -10.8481 -13.1777 -14.043 -11.0754 -11.7155 -14.3762 -15.0388 -11.7155 -12.4167 -15.0388 -15.6818 -14.3762 -15.0388 -17.9663 -18.7225 -15.0388 -15.6818 -18.7225 -19.35 -12.4167 -13.1777 -15.6818 -16.3496 -13.1777 -14.043 -16.3496 -17.104 -15.6818 -16.3496 -19.35 -19.9087 -16.3496 -17.104 -19.9087 -20.4821 -7.47075 -8.43264 -10.8481 -11.7817 -8.43264 -9.36526 -11.7817 -12.7561 -10.8481 -11.7817 -14.043 -15.0124 -11.7817 -12.7561 -15.0124 -16.0419 -9.36526 -10.2533 -12.7561 -13.7224 -10.2533 -11.1702 -13.7224 -14.7148 -12.7561 -13.7224 -16.0419 -17.0537 -13.7224 -14.7148 -17.0537 -18.0758 -14.043 -15.0124 -17.104 -18.0437 -15.0124 -16.0419 -18.0437 -19.0806 -17.104 -18.0437 -20.4821 -21.2197 -18.0437 -19.0806 -21.2197 -22.0763 -16.0419 -17.0537 -19.0806 -20.2131 -17.0537 -18.0758 -20.2131 -21.2234 -19.0806 -20.2131 -22.0763 -23.0068 -20.2131 -21.2234 -23.0068 -23.5369 -9.3095e-11 -5.01131e-11 -0.483729 -1.57334 -5.01131e-11 -3.5478e-11 -1.57334 -2.54197 -0.483729 -1.57334 -3.95443 -4.91851 -1.57334 -2.54197 -4.91851 -5.89228 -3.5478e-11 -2.77321e-11 -2.54197 -3.30974 -2.77321e-11 -2.30882e-11 -3.30974 -3.94636 -2.54197 -3.30974 -5.89228 -6.79919 -3.30974 -3.94636 -6.79919 -7.68973 -3.95443 -4.91851 -7.59684 -8.54269 -4.91851 -5.89228 -8.54269 -9.4923 -7.59684 -8.54269 -11.1702 -12.1735 -8.54269 -9.4923 -12.1735 -13.1831 -5.89228 -6.79919 -9.4923 -10.4205 -6.79919 -7.68973 -10.4205 -11.3693 -9.4923 -10.4205 -13.1831 -14.1419 -10.4205 -11.3693 -14.1419 -15.0772 -2.30882e-11 -1.96003e-11 -3.94636 -4.51159 -1.96003e-11 -1.7345e-11 -4.51159 -5.02821 -3.94636 -4.51159 -7.68973 -8.65236 -4.51159 -5.02821 -8.65236 -9.70441 -1.7345e-11 -1.54434e-11 -5.02821 -5.53124 -1.54434e-11 -1.45805e-11 -5.53124 -5.61882 -5.02821 -5.53124 -9.70441 -10.4918 -5.53124 -5.61882 -10.4918 -10.7256 -7.68973 -8.65236 -11.3693 -12.4934 -8.65236 -9.70441 -12.4934 -13.8985 -11.3693 -12.4934 -15.0772 -16.1564 -12.4934 -13.8985 -16.1564 -17.661 -9.70441 -10.4918 -13.8985 -15.1741 -10.4918 -10.7256 -15.1741 -15.6205 -13.8985 -15.1741 -17.661 -19.5184 -15.1741 -15.6205 -19.5184 -20.3214 -11.1702 -12.1735 -14.7148 -15.7701 -12.1735 -13.1831 -15.7701 -16.869 -14.7148 -15.7701 -18.0758 -19.1838 -15.7701 -16.869 -19.1838 -20.4762 -13.1831 -14.1419 -16.869 -17.8523 -14.1419 -15.0772 -17.8523 -18.7992 -16.869 -17.8523 -20.4762 -21.4742 -17.8523 -18.7992 -21.4742 -22.1941 -18.0758 -19.1838 -21.2234 -22.0655 -19.1838 -20.4762 -22.0655 -22.9636 -21.2234 -22.0655 -23.5369 -23.5478 -22.0655 -22.9636 -23.5478 -26.0557 -20.4762 -21.4742 -22.9636 -23.3332 -21.4742 -22.1941 -23.3332 -24.5881 -22.9636 -23.3332 -26.0557 -28.0491 -23.3332 -24.5881 -28.0491 -29.3805 -15.0772 -16.1564 -18.7992 -19.6724 -16.1564 -17.661 -19.6724 -20.2274 -18.7992 -19.6724 -22.1941 -22.6261 -19.6724 -20.2274 -22.6261 -23.1621 -17.661 -19.5184 -20.2274 -21.1398 -19.5184 -20.3214 -21.1398 -22.4477 -20.2274 -21.1398 -23.1621 -23.7327 -21.1398 -22.4477 -23.7327 -23.5941 -22.1941 -22.6261 -24.5881 -25.9214 -22.6261 -23.1621 -25.9214 -26.8143 -24.5881 -25.9214 -29.3805 -30.2776 -25.9214 -26.8143 -30.2776 -30.9831 -23.1621 -23.7327 -26.8143 -27.15 -23.7327 -23.5941 -27.15 -27.1615 -26.8143 -27.15 -30.9831 -31.2796 -27.15 -27.1615 -31.2796 -31.305 
SCALARS y_displacement double 1
LOOKUP_TABLE default