# vtk DataFile Version 3.0
#This file was generated by the deal.II library on 2016/3/9 at 8:36:05
ASCII
DATASET UNSTRUCTURED_GRID

POINTS 2048 double
0 0 0
0.0625 0 0
0 0.0625 0
0.0625 0.0625 0
0.0625 0 0
0.125 0 0
0.0625 0.0625 0
0.125 0.0625 0
0 0.0625 0
0.0625 0.0625 0
0 0.125 0
0.0625 0.125 0
0.0625 0.0625 0
0.125 0.0625 0
0.0625 0.125 0
0.125 0.125 0
0.125 0 0
0.1875 0 0
0.125 0.0625 0
0.1875 0.0625 0
0.1875 0 0
0.25 0 0
0.1875 0.0625 0
0.25 0.0625 0
0.125 0.0625 0
0.1875 0.0625 0
0.125 0.125 0
0.1875 0.125 0
0.1875 0.0625 0
0.25 0.0625 0
0.1875 0.125 0
0.25 0.125 0
0 0.125 0
0.0625 0.125 0
0 0.1875 0
0.0625 0.1875 0
0.0625 0.125 0
0.125 0.125 0
0.0625 0.1875 0
0.125 0.1875 0
0 0.1875 0
0.0625 0.1875 0
0 0.25 0
0.0625 0.25 0
0.0625 0.1875 0
0.125 0.1875 0
0.0625 0.25 0
0.125 0.25 0
0.125 0.125 0
0.1875 0.125 0
0.125 0.1875 0
0.1875 0.1875 0
0.1875 0.125 0
0.25 0.125 0
0.1875 0.1875 0
0.25 0.1875 0
0.125 0.1875 0
0.1875 0.1875 0
0.125 0.25 0
0.1875 0.25 0
0.1875 0.1875 0
0.25 0.1875 0
0.1875 0.25 0
0.25 0.25 0
0.25 0 0
0.3125 0 0
0.25 0.0625 0
0.3125 0.0625 0
0.3125 0 0
0.375 0 0
0.3125 0.0625 0
0.375 0.0625 0
0.25 0.0625 0
0.3125 0.0625 0
0.25 0.125 0
0.3125 0.125 0
0.3125 0.0625 0
0.375 0.0625 0
0.3125 0.125 0
0.375 0.125 0
0.375 0 0
0.4375 0 0
0.375 0.0625 0
0.4375 0.0625 0
0.4375 0 0
0.5 0 0
0.4375 0.0625 0
0.5 0.0625 0
0.375 0.0625 0
0.4375 0.0625 0
0.375 0.125 0
0.4375 0.125 0
0.4375 0.0625 0
0.5 0.0625 0
0.4375 0.125 0
0.5 0.125 0
0.25 0.125 0
0.3125 0.125 0
0.25 0.1875 0
0.3125 0.1875 0
0.3125 0.125 0
0.375 0.125 0
0.3125 0.1875 0
0.375 0.1875 0
0.25 0.1875 0
0.3125 0.1875 0
0.25 0.25 0
0.3125 0.25 0
0.3125 0.1875 0
0.375 0.1875 0
0.3125 0.25 0
0.375 0.25 0
0.375 0.125 0
0.4375 0.125 0
0.375 0.1875 0
0.4375 0.1875 0
0.4375 0.125 0
0.5 0.125 0
0.4375 0.1875 0
0.5 0.1875 0
0.375 0.1875 0
0.4375 0.1875 0
0.375 0.25 0
0.4375 0.25 0
0.4375 0.1875 0
0.5 0.1875 0
0.4375 0.25 0
0.5 0.25 0
0 0.25 0
0.0625 0.25 0
0 0.3125 0
0.0625 0.3125 0
0.0625 0.25 0
0.125 0.25 0
0.0625 0.3125 0
0.125 0.3125 0
0 0.3125 0
0.0625 0.3125 0
0 0.375 0
0.0625 0.375 0
0.0625 0.3125 0
0.125 0.3125 0
0.0625 0.375 0
0.125 0.375 0
0.125 0.25 0
0.1875 0.25 0
0.125 0.3125 0
0.1875 0.3125 0
0.1875 0.25 0
0.25 0.25 0
0.1875 0.3125 0
0.25 0.3125 0
0.125 0.3125 0
0.1875 0.3125 0
0.125 0.375 0
0.1875 0.375 0
0.1875 0.3125 0
0.25 0.3125 0
0.1875 0.375 0
0.25 0.375 0
0 0.375 0
0.0625 0.375 0
0 0.4375 0
0.0625 0.4375 0
0.0625 0.375 0
0.125 0.375 0
0.0625 0.4375 0
0.125 0.4375 0
0 0.4375 0
0.0625 0.4375 0
0 0.5 0
0.0625 0.5 0
0.0625 0.4375 0
0.125 0.4375 0
0.0625 0.5 0
0.125 0.5 0
0.125 0.375 0
0.1875 0.375 0
0.125 0.4375 0
0.1875 0.4375 0
0.1875 0.375 0
0.25 0.375 0
0.1875 0.4375 0
0.25 0.4375 0
0.125 0.4375 0
0.1875 0.4375 0
0.125 0.5 0
0.1875 0.5 0
0.1875 0.4375 0
0.25 0.4375 0
0.1875 0.5 0
0.25 0.5 0
0.25 0.25 0
0.3125 0.25 0
0.25 0.3125 0
0.3125 0.3125 0
0.3125 0.25 0
0.375 0.25 0
0.3125 0.3125 0
0.375 0.3125 0
0.25 0.3125 0
0.3125 0.3125 0
0.25 0.375 0
0.3125 0.375 0
0.3125 0.3125 0
0.375 0.3125 0
0.3125 0.375 0
0.375 0.375 0
0.375 0.25 0
0.4375 0.25 0
0.375 0.3125 0
0.4375 0.3125 0
0.4375 0.25 0
0.5 0.25 0
0.4375 0.3125 0
0.5 0.3125 0
0.375 0.3125 0
0.4375 0.3125 0
0.375 0.375 0
0.4375 0.375 0
0.4375 0.3125 0
0.5 0.3125 0
0.4375 0.375 0
0.5 0.375 0
0.25 0.375 0
0.3125 0.375 0
0.25 0.4375 0
0.3125 0.4375 0
0.3125 0.375 0
0.375 0.375 0
0.3125 0.4375 0
0.375 0.4375 0
0.25 0.4375 0
0.3125 0.4375 0
0.25 0.5 0
0.3125 0.5 0
0.3125 0.4375 0
0.375 0.4375 0
0.3125 0.5 0
0.375 0.5 0
0.375 0.375 0
0.4375 0.375 0
0.375 0.4375 0
0.4375 0.4375 0
0.4375 0.375 0
0.5 0.375 0
0.4375 0.4375 0
0.5 0.4375 0
0.375 0.4375 0
0.4375 0.4375 0
0.375 0.5 0
0.4375 0.5 0
0.4375 0.4375 0
0.5 0.4375 0
0.4375 0.5 0
0.5 0.5 0
0.5 0 0
0.5625 0 0
0.5 0.0625 0
0.5625 0.0625 0
0.5625 0 0
0.625 0 0
0.5625 0.0625 0
0.625 0.0625 0
0.5 0.0625 0
0.5625 0.0625 0
0.5 0.125 0
0.5625 0.125 0
0.5625 0.0625 0
0.625 0.0625 0
0.5625 0.125 0
0.625 0.125 0
0.625 0 0
0.6875 0 0
0.625 0.0625 0
0.6875 0.0625 0
0.6875 0 0
0.75 0 0
0.6875 0.0625 0
0.75 0.0625 0
0.625 0.0625 0
0.6875 0.0625 0
0.625 0.125 0
0.6875 0.125 0
0.6875 0.0625 0
0.75 0.0625 0
0.6875 0.125 0
0.75 0.125 0
0.5 0.125 0
0.5625 0.125 0
0.5 0.1875 0
0.5625 0.1875 0
0.5625 0.125 0
0.625 0.125 0
0.5625 0.1875 0
0.625 0.1875 0
0.5 0.1875 0
0.5625 0.1875 0
0.5 0.25 0
0.5625 0.25 0
0.5625 0.1875 0
0.625 0.1875 0
0.5625 0.25 0
0.625 0.25 0
0.625 0.125 0
0.6875 0.125 0
0.625 0.1875 0
0.6875 0.1875 0
0.6875 0.125 0
0.75 0.125 0
0.6875 0.1875 0
0.75 0.1875 0
0.625 0.1875 0
0.6875 0.1875 0
0.625 0.25 0
0.6875 0.25 0
0.6875 0.1875 0
0.75 0.1875 0
0.6875 0.25 0
0.75 0.25 0
0.75 0 0
0.8125 0 0
0.75 0.0625 0
0.8125 0.0625 0
0.8125 0 0
0.875 0 0
0.8125 0.0625 0
0.875 0.0625 0
0.75 0.0625 0
0.8125 0.0625 0
0.75 0.125 0
0.8125 0.125 0
0.8125 0.0625 0
0.875 0.0625 0
0.8125 0.125 0
0.875 0.125 0
0.875 0 0
0.9375 0 0
0.875 0.0625 0
0.9375 0.0625 0
0.9375 0 0
1 0 0
0.9375 0.0625 0
1 0.0625 0
0.875 0.0625 0
0.9375 0.0625 0
0.875 0.125 0
0.9375 0.125 0
0.9375 0.0625 0
1 0.0625 0
0.9375 0.125 0
1 0.125 0
0.75 0.125 0
0.8125 0.125 0
0.75 0.1875 0
0.8125 0.1875 0
0.8125 0.125 0
0.875 0.125 0
0.8125 0.1875 0
0.875 0.1875 0
0.75 0.1875 0
0.8125 0.1875 0
0.75 0.25 0
0.8125 0.25 0
0.8125 0.1875 0
0.875 0.1875 0
0.8125 0.25 0
0.875 0.25 0
0.875 0.125 0
0.9375 0.125 0
0.875 0.1875 0
0.9375 0.1875 0
0.9375 0.125 0
1 0.125 0
0.9375 0.1875 0
1 0.1875 0
0.875 0.1875 0
0.9375 0.1875 0
0.875 0.25 0
0.9375 0.25 0
0.9375 0.1875 0
1 0.1875 0
0.9375 0.25 0
1 0.25 0
0.5 0.25 0
0.5625 0.25 0
0.5 0.3125 0
0.5625 0.3125 0
0.5625 0.25 0
0.625 0.25 0
0.5625 0.3125 0
0.625 0.3125 0
0.5 0.3125 0
0.5625 0.3125 0
0.5 0.375 0
0.5625 0.375 0
0.5625 0.3125 0
0.625 0.3125 0
0.5625 0.375 0
0.625 0.375 0
0.625 0.25 0
0.6875 0.25 0
0.625 0.3125 0
0.6875 0.3125 0
0.6875 0.25 0
0.75 0.25 0
0.6875 0.3125 0
0.75 0.3125 0
0.625 0.3125 0
0.6875 0.3125 0
0.625 0.375 0
0.6875 0.375 0
0.6875 0.3125 0
0.75 0.3125 0
0.6875 0.375 0
0.75 0.375 0
0.5 0.375 0
0.5625 0.375 0
0.5 0.4375 0
0.5625 0.4375 0
0.5625 0.375 0
0.625 0.375 0
0.5625 0.4375 0
0.625 0.4375 0
0.5 0.4375 0
0.5625 0.4375 0
0.5 0.5 0
0.5625 0.5 0
0.5625 0.4375 0
0.625 0.4375 0
0.5625 0.5 0
0.625 0.5 0
0.625 0.375 0
0.6875 0.375 0
0.625 0.4375 0
0.6875 0.4375 0
0.6875 0.375 0
0.75 0.375 0
0.6875 0.4375 0
0.75 0.4375 0
0.625 0.4375 0
0.6875 0.4375 0
0.625 0.5 0
0.6875 0.5 0
0.6875 0.4375 0
0.75 0.4375 0
0.6875 0.5 0
0.75 0.5 0
0.75 0.25 0
0.8125 0.25 0
0.75 0.3125 0
0.8125 0.3125 0
0.8125 0.25 0
0.875 0.25 0
0.8125 0.3125 0
0.875 0.3125 0
0.75 0.3125 0
0.8125 0.3125 0
0.75 0.375 0
0.8125 0.375 0
0.8125 0.3125 0
0.875 0.3125 0
0.8125 0.375 0
0.875 0.375 0
0.875 0.25 0
0.9375 0.25 0
0.875 0.3125 0
0.9375 0.3125 0
0.9375 0.25 0
1 0.25 0
0.9375 0.3125 0
1 0.3125 0
0.875 0.3125 0
0.9375 0.3125 0
0.875 0.375 0
0.9375 0.375 0
0.9375 0.3125 0
1 0.3125 0
0.9375 0.375 0
1 0.375 0
0.75 0.375 0
0.8125 0.375 0
0.75 0.4375 0
0.8125 0.4375 0
0.8125 0.375 0
0.875 0.375 0
0.8125 0.4375 0
0.875 0.4375 0
0.75 0.4375 0
0.8125 0.4375 0
0.75 0.5 0
0.8125 0.5 0
0.8125 0.4375 0
0.875 0.4375 0
0.8125 0.5 0
0.875 0.5 0
0.875 0.375 0
0.9375 0.375 0
0.875 0.4375 0
0.9375 0.4375 0
0.9375 0.375 0
1 0.375 0
0.9375 0.4375 0
1 0.4375 0
0.875 0.4375 0
0.9375 0.4375 0
0.875 0.5 0
0.9375 0.5 0
0.9375 0.4375 0
1 0.4375 0
0.9375 0.5 0
1 0.5 0
1 0 0
1.0625 0 0
1 0.0625 0
1.0625 0.0625 0
1.0625 0 0
1.125 0 0
1.0625 0.0625 0
1.125 0.0625 0
1 0.0625 0
1.0625 0.0625 0
1 0.125 0
1.0625 0.125 0
1.0625 0.0625 0
1.125 0.0625 0
1.0625 0.125 0
1.125 0.125 0
1.125 0 0
1.1875 0 0
1.125 0.0625 0
1.1875 0.0625 0
1.1875 0 0
1.25 0 0
1.1875 0.0625 0
1.25 0.0625 0
1.125 0.0625 0
1.1875 0.0625 0
1.125 0.125 0
1.1875 0.125 0
1.1875 0.0625 0
1.25 0.0625 0
1.1875 0.125 0
1.25 0.125 0
1 0.125 0
1.0625 0.125 0
1 0.1875 0
1.0625 0.1875 0
1.0625 0.125 0
1.125 0.125 0
1.0625 0.1875 0
1.125 0.1875 0
1 0.1875 0
1.0625 0.1875 0
1 0.25 0
1.0625 0.25 0
1.0625 0.1875 0
1.125 0.1875 0
1.0625 0.25 0
1.125 0.25 0
1.125 0.125 0
1.1875 0.125 0
1.125 0.1875 0
1.1875 0.1875 0
1.1875 0.125 0
1.25 0.125 0
1.1875 0.1875 0
1.25 0.1875 0
1.125 0.1875 0
1.1875 0.1875 0
1.125 0.25 0
1.1875 0.25 0
1.1875 0.1875 0
1.25 0.1875 0
1.1875 0.25 0
1.25 0.25 0
1.25 0 0
1.3125 0 0
1.25 0.0625 0
1.3125 0.0625 0
1.3125 0 0
1.375 0 0
1.3125 0.0625 0
1.375 0.0625 0
1.25 0.0625 0
1.3125 0.0625 0
1.25 0.125 0
1.3125 0.125 0
1.3125 0.0625 0
1.375 0.0625 0
1.3125 0.125 0
1.375 0.125 0
1.375 0 0
1.4375 0 0
1.375 0.0625 0
1.4375 0.0625 0
1.4375 0 0
1.5 0 0
1.4375 0.0625 0
1.5 0.0625 0
1.375 0.0625 0
1.4375 0.0625 0
1.375 0.125 0
1.4375 0.125 0
1.4375 0.0625 0
1.5 0.0625 0
1.4375 0.125 0
1.5 0.125 0
1.25 0.125 0
1.3125 0.125 0
1.25 0.1875 0
1.3125 0.1875 0
1.3125 0.125 0
1.375 0.125 0
1.3125 0.1875 0
1.375 0.1875 0
1.25 0.1875 0
1.3125 0.1875 0
1.25 0.25 0
1.3125 0.25 0
1.3125 0.1875 0
1.375 0.1875 0
1.3125 0.25 0
1.375 0.25 0
1.375 0.125 0
1.4375 0.125 0
1.375 0.1875 0
1.4375 0.1875 0
1.4375 0.125 0
1.5 0.125 0
1.4375 0.1875 0
1.5 0.1875 0
1.375 0.1875 0
1.4375 0.1875 0
1.375 0.25 0
1.4375 0.25 0
1.4375 0.1875 0
1.5 0.1875 0
1.4375 0.25 0
1.5 0.25 0
1 0.25 0
1.0625 0.25 0
1 0.3125 0
1.0625 0.3125 0
1.0625 0.25 0
1.125 0.25 0
1.0625 0.3125 0
1.125 0.3125 0
1 0.3125 0
1.0625 0.3125 0
1 0.375 0
1.0625 0.375 0
1.0625 0.3125 0
1.125 0.3125 0
1.0625 0.375 0
1.125 0.375 0
1.125 0.25 0
1.1875 0.25 0
1.125 0.3125 0
1.1875 0.3125 0
1.1875 0.25 0
1.25 0.25 0
1.1875 0.3125 0
1.25 0.3125 0
1.125 0.3125 0
1.1875 0.3125 0
1.125 0.375 0
1.1875 0.375 0
1.1875 0.3125 0
1.25 0.3125 0
1.1875 0.375 0
1.25 0.375 0
1 0.375 0
1.0625 0.375 0
1 0.4375 0
1.0625 0.4375 0
1.0625 0.375 0
1.125 0.375 0
1.0625 0.4375 0
1.125 0.4375 0
1 0.4375 0
1.0625 0.4375 0
1 0.5 0
1.0625 0.5 0
1.0625 0.4375 0
1.125 0.4375 0
1.0625 0.5 0
1.125 0.5 0
1.125 0.375 0
1.1875 0.375 0
1.125 0.4375 0
1.1875 0.4375 0
1.1875 0.375 0
1.25 0.375 0
1.1875 0.4375 0
1.25 0.4375 0
1.125 0.4375 0
1.1875 0.4375 0
1.125 0.5 0
1.1875 0.5 0
1.1875 0.4375 0
1.25 0.4375 0
1.1875 0.5 0
1.25 0.5 0
[...]
POINT_DATA 2048
SCALARS x_displacement double 1
LOOKUP_TABLE default
0 2.35108 0 1.0023 2.35108 4.19934 1.0023 2.15162 0 1.0023 0 0.110645 1.0023 2.15162 0.110645 0.470752 4.19934 5.6461 2.15162 3.21237 5.6461 6.73752 3.21237 4.18466 2.15162 3.21237 0.470752 1.13025 3.21237 4.18466 1.13025 1.96978 0 0.110645 0 -0.784464 0.110645 0.470752 -0.784464 -1.12821 0 -0.784464 0 -1.7263 -0.784464 -1.12821 -1.7263 -2.6866 0.470752 1.13025 -1.12821 -0.850613 1.13025 1.96978 -0.850613 -0.0672615 -1.12821 -0.850613 -2.6866 -2.76336 -0.850613 -0.0672615 -2.76336 -1.8245 6.73752 7.57095 4.18466 5.03618 7.57095 8.28887 5.03618 5.75362 4.18466 5.03618 1.96978 2.77773 5.03618 5.75362 2.77773 3.41723 8.28887 9.01072 5.75362 6.41966 9.01072 9.84127 6.41966 7.17695 5.75362 6.41966 3.41723 3.94512 6.41966 7.17695 3.94512 4.51161 1.96978 2.77773 -0.0672615 0.820484 2.77773 3.41723 0.820484 1.46353 -0.0672615 0.820484 -1.8245 -0.669061 0.820484 1.46353 -0.669061 0.118006 3.41723 3.94512 1.46353 1.93762 3.94512 4.51161 1.93762 2.33188 1.46353 1.93762 0.118006 0.687466 1.93762 2.33188 0.687466 1.17548 0 -1.7263 0 -2.74172 -1.7263 -2.6866 -2.74172 -4.08027 0 -2.74172 0 -1.73908 -2.74172 -4.08027 -1.73908 -3.15058 -2.6866 -2.76336 -4.08027 -4.52227 -2.76336 -1.8245 -4.52227 -3.08444 -4.08027 -4.52227 -3.15058 -2.14709 -4.52227 -3.08444 -2.14709 -1.93385 0 -1.73908 0 -0.4845 -1.73908 -3.15058 -0.4845 -1.00667 0 -0.4845 0 -8.59004e-11 -0.4845 -1.00667 -8.59004e-11 1.10777e-11 -3.15058 -2.14709 -1.00667 -1.86878 -2.14709 -1.93385 -1.86878 -3.19464 -1.00667 -1.86878 1.10777e-11 -4.02981e-10 -1.86878 -3.19464 -4.02981e-10 -3.86296e-10 -1.8245 -0.669061 -3.08444 -1.44392 -0.669061 0.118006 -1.44392 -0.517486 -3.08444 -1.44392 -1.93385 -1.43136 -1.44392 -0.517486 -1.43136 -0.72635 0.118006 0.687466 -0.517486 0.156742 0.687466 1.17548 0.156742 0.74379 -0.517486 0.156742 -0.72635 -0.127842 0.156742 0.74379 -0.127842 0.416836 -1.93385 -1.43136 -3.19464 -1.32014 -1.43136 -0.72635 -1.32014 -0.773319 -3.19464 -1.32014 -3.86296e-10 -1.05467e-10 -1.32014 -0.773319 -1.05467e-10 1.2433e-10 -0.72635 -0.127842 -0.773319 -0.333737 -0.127842 0.416836 -0.333737 0.110501 -0.773319 -0.333737 1.2433e-10 1.47246e-10 -0.333737 0.110501 1.47246e-10 1.60196e-10 9.84127 10.809 7.17695 8.09007 10.809 11.8487 8.09007 9.10383 7.17695 8.09007 4.51161 5.29352 8.09007 9.10383 5.29352 6.26853 11.8487 12.9052 9.10383 10.0969 12.9052 14.002 10.0969 11.1343 9.10383 10.0969 6.26853 7.28401 10.0969 11.1343 7.28401 8.30512 4.51161 5.29352 2.33188 2.81532 5.29352 6.26853 2.81532 3.52429 2.33188 2.81532 1.17548 1.67759 2.81532 3.52429 1.67759 2.24339 6.26853 7.28401 3.52429 4.531 7.28401 8.30512 4.531 5.73169 3.52429 4.531 2.24339 3.11299 4.531 5.73169 3.11299 4.61913 14.002 15.1854 11.1343 12.2215 15.1854 16.4032 12.2215 13.2379 11.1343 12.2215 8.30512 9.35049 12.2215 13.2379 9.35049 10.1895 16.4032 17.5183 13.2379 14.0766 17.5183 18.472 14.0766 14.7634 13.2379 14.0766 10.1895 10.7996 14.0766 14.7634 10.7996 11.3131 8.30512 9.35049 5.73169 6.86423 9.35049 10.1895 6.86423 7.44654 5.73169 6.86423 4.61913 5.26599 6.86423 7.44654 5.26599 5.42166 10.1895 10.7996 7.44654 7.76431 10.7996 11.3131 7.76431 8.01663 7.44654 7.76431 5.42166 5.43689 7.76431 8.01663 5.43689 5.30728 1.17548 1.67759 0.74379 1.31179 1.67759 2.24339 1.31179 1.95674 0.74379 1.31179 0.416836 0.934554 1.31179 1.95674 0.934554 1.44752 2.24339 3.11299 1.95674 2.80465 3.11299 4.61913 2.80465 3.65722 1.95674 2.80465 1.44752 1.9576 2.80465 3.65722 1.9576 2.32156 0.416836 0.934554 0.110501 0.467769 0.934554 1.44752 0.467769 0.769652 0.110501 0.467769 1.60196e-10 1.6448e-10 0.467769 0.769652 1.6448e-10 1.64191e-10 1.44752 1.9576 0.769652 0.990817 1.9576 2.32156 0.990817 1.11051 0.769652 0.990817 1.64191e-10 1.62461e-10 0.990817 1.11051 1.62461e-10 1.59045e-10 4.61913 5.26599 3.65722 3.90038 5.26599 5.42166 3.90038 3.87107 3.65722 3.90038 2.32156 2.41139 3.90038 3.87107 2.41139 2.35078 5.42166 5.43689 3.87107 3.76899 5.43689 5.30728 3.76899 3.57369 3.87107 3.76899 2.35078 2.28141 3.76899 3.57369 2.28141 2.21426 2.32156 2.41139 1.11051 1.12277 2.41139 2.35078 1.12277 1.05969 1.11051 1.12277 1.59045e-10 1.54028e-10 1.12277 1.05969 1.54028e-10 1.4873e-10 2.35078 2.28141 1.05969 0.968391 2.28141 2.21426 0.968391 0.839172 1.05969 0.968391 1.4873e-10 1.49058e-10 0.968391 0.839172 1.49058e-10 1.58924e-10 18.472 19.2697 14.7634 15.3978 19.2697 19.934 15.3978 16.0478 14.7634 15.3978 11.3131 11.8729 15.3978 16.0478 11.8729 12.5684 19.934 20.525 16.0478 16.7317 20.525 21.0659 16.7317 17.444 16.0478 16.7317 12.5684 13.3386 16.7317 17.444 13.3386 14.1636 11.3131 11.8729 8.01663 8.39783 11.8729 12.5684 8.39783 9.11174 8.01663 8.39783 5.30728 5.08809 8.39783 9.11174 5.08809 5.5945 12.5684 13.3386 9.11174 10.0261 13.3386 14.1636 10.0261 10.9588 9.11174 10.0261 5.5945 6.66469 10.0261 10.9588 6.66469 7.6865 21.0659 21.6235 17.444 18.1641 21.6235 22.1243 18.1641 18.9092 17.444 18.1641 14.1636 15.0101 18.1641 18.9092 15.0101 15.9143 22.1243 22.482 18.9092 19.8082 22.482 22.9422 19.8082 20.9842 18.9092 19.8082 15.9143 16.8922 19.8082 20.9842 16.8922 18.0086 14.1636 15.0101 10.9588 11.8602 15.0101 15.9143 11.8602 12.7972 10.9588 11.8602 7.6865 8.68034 11.8602 12.7972 8.68034 9.65039 15.9143 16.8922 12.7972 13.8017 16.8922 18.0086 13.8017 14.8335 12.7972 13.8017 9.65039 10.574 13.8017 14.8335 10.574 11.487 5.30728 5.08809 3.57369 2.81183 5.08809 5.5945 2.81183 2.06255 3.57369 2.81183 2.21426 2.1694 2.81183 2.06255 2.1694 -0.471721 5.5945 6.66469 2.06255 3.39468 6.66469 7.6865 3.39468 4.48466 2.06255 3.39468 -0.471721 0.512423 3.39468 4.48466 0.512423 1.31877 2.21426 2.1694 0.839172 0.0517793 2.1694 -0.471721 0.0517793 1.80307 0.839172 0.0517793 1.58924e-10 2.03954e-10 0.0517793 1.80307 2.03954e-10 -2.05649e-08 -0.471721 0.512423 1.80307 -0.545976 0.512423 1.31877 -0.545976 -0.919302 1.80307 -0.545976 -2.05649e-08 -1.08884e-08 -0.545976 -0.919302 -1.08884e-08 -5.40511e-09 7.6865 8.68034 4.48466 5.49755 8.68034 9.65039 5.49755 6.38695 4.48466 5.49755 1.31877 2.28805 5.49755 6.38695 2.28805 3.1016 9.65039 10.574 6.38695 7.25039 10.574 11.487 7.25039 8.09559 6.38695 7.25039 3.1016 3.85798 7.25039 8.09559 3.85798 4.58477 1.31877 2.28805 -0.919302 -0.612533 2.28805 3.1016 -0.612533 -0.228613 -0.919302 -0.612533 -5.40511e-09 3.51493e-10 -0.612533 -0.228613 3.51493e-10 4.20142e-10 3.1016 3.85798 -0.228613 0.470476 3.85798 4.58477 0.470476 1.19974 -0.228613 0.470476 4.20142e-10 3.15814e-10 0.470476 1.19974 3.15814e-10 3.06915e-10 22.9422 22.5947 20.9842 21.9721 22.5947 25.657 21.9721 22.921 20.9842 21.9721 18.0086 19.1533 21.9721 22.921 19.1533 20.4224 25.657 27.7995 22.921 23.1658 27.7995 29.235 23.1658 24.3622 22.921 23.1658 20.4224 21.4339 23.1658 24.3622 21.4339 22.2097 18.0086 19.1533 14.8335 15.8815 19.1533 20.4224 15.8815 16.954 14.8335 15.8815 11.487 12.4491 15.8815 16.954 12.4491 13.3842 20.4224 21.4339 16.954 17.9383 21.4339 22.2097 17.9383 18.9383 16.954 17.9383 13.3842 14.3009 17.9383 18.9383 14.3009 15.2238 29.235 30.1313 24.3622 25.7968 30.1313 30.8133 25.7968 26.7134 24.3622 25.7968 22.2097 22.6583 25.7968 26.7134 22.6583 23.2003 30.8133 31.0824 26.7134 27.0513 31.0824 31.1027 27.0513 27.0524 26.7134 27.0513 23.2003 23.7119 27.0513 27.0524 23.7119 23.6517 22.2097 22.6583 18.9383 19.8579 22.6583 23.2003 19.8579 20.4567 18.9383 19.8579 15.2238 16.2667 19.8579 20.4567 16.2667 17.6622 23.2003 23.7119 20.4567 21.5982 23.7119 23.6517 21.5982 22.3091 20.4567 21.5982 17.6622 19.3292 21.5982 22.3091 19.3292 20.0397 11.487 12.4491 8.09559 8.92706 12.4491 13.3842 8.92706 9.73032 8.09559 8.92706 4.58477 5.32862 8.92706 9.73032 5.32862 6.08589 13.3842 14.3009 9.73032 10.5712 14.3009 15.2238 10.5712 11.4793 9.73032 10.5712 6.08589 6.90013 10.5712 11.4793 6.90013 7.75075 4.58477 5.32862 1.19974 1.87886 5.32862 6.08589 1.87886 2.61022 1.19974 1.87886 3.06915e-10 3.21749e-10 1.87886 2.61022 3.21749e-10 3.18101e-10 6.08589 6.90013 2.61022 3.33813 6.90013 7.75075 3.33813 3.9721 2.61022 3.33813 3.18101e-10 3.19168e-10 3.33813 3.9721 3.19168e-10 3.15551e-10 15.2238 16.2667 11.4793 12.5483 16.2667 17.6622 12.5483 13.8181 11.4793 12.5483 7.75075 8.66007 12.5483 13.8181 8.66007 9.60868 17.6622 19.3292 13.8181 14.9742 19.3292 20.0397 14.9742 15.3833 13.8181 14.9742 9.60868 10.3285 14.9742 15.3833 10.3285 10.5484 7.75075 8.66007 3.9721 4.50176 8.66007 9.60868 4.50176 4.96569 3.9721 4.50176 3.15551e-10 3.13818e-10 4.50176 4.96569 3.13818e-10 3.13246e-10 9.60868 10.3285 4.96569 5.43336 10.3285 10.5484 5.43336 5.52084 4.96569 5.43336 3.13246e-10 3.12388e-10 5.43336 5.52084 3.12388e-10 3.12212e-10 0 -8.59004e-11 0 0.4845 -8.59004e-11 1.10777e-11 0.4845 1.00667 0 0.4845 0 1.73908 0.4845 1.00667 1.73908 3.15058 1.10777e-11 -4.02981e-10 1.00667 1.86878 -4.02981e-10 -3.86296e-10 1.86878 3.19464 1.00667 1.86878 3.15058 2.14709 1.86878 3.19464 2.14709 1.93385 0 1.73908 0 2.74172 1.73908 3.15058 2.74172 4.08027 0 2.74172 0 1.7263 2.74172 4.08027 1.7263 2.6866 3.15058 2.14709 4.08027 4.52227 2.14709 1.93385 4.52227 3.08444 4.08027 4.52227 2.6866 2.76336 4.52227 3.08444 2.76336 1.8245 -3.86296e-10 -1.05467e-10 3.19464 1.32014 -1.05467e-10 1.2433e-10 1.32014 0.773319 3.19464 1.32014 1.93385 1.43136 1.32014 0.773319 1.43136 0.72635 1.2433e-10 1.47246e-10 0.773319 0.333737 1.47246e-10 1.60196e-10 0.333737 -0.110501 0.773319 0.333737 0.72635 0.127842 0.333737 -0.110501 0.127842 -0.416836 1.93385 1.43136 3.08444 1.44392 1.43136 0.72635 1.44392 0.517486 3.08444 1.44392 1.8245 0.669061 1.44392 0.517486 0.669061 -0.118006 0.72635 0.127842 0.517486 -0.156742 0.127842 -0.416836 -0.156742 -0.74379 0.517486 -0.156742 -0.118006 -0.687466 -0.156742 -0.74379 -0.687466 -1.17548 0 1.7263 0 0.784464 1.7263 2.6866 0.784464 1.12821 0 0.784464 0 -0.110645 0.784464 1.12821 -0.110645 -0.470752 2.6866 2.76336 1.12821 0.850613 2.76336 1.8245 0.850613 0.0672615 1.12821 0.850613 -0.470752 -1.13025 0.850613 0.0672615 -1.13025 -1.96978 0 -0.110645 0 -1.0023 -0.110645 -0.470752 -1.0023 -2.15162 0 -1.0023 0 -2.35108 -1.0023 -2.15162 -2.35108 -4.19934 -0.470752 -1.13025 -2.15162 -3.21237 -1.13025 -1.96978 -3.21237 -4.18466 -2.15162 -3.21237 -4.19934 -5.6461 -3.21237 -4.18466 -5.6461 -6.73752 1.8245 0.669061 0.0672615 -0.820484 0.669061 -0.118006 -0.820484 -1.46353 0.0672615 -0.820484 -1.96978 -2.77773 -0.820484 -1.46353 -2.77773 -3.41723 -0.118006 -0.687466 -1.46353 -1.93762 -0.687466 -1.17548 -1.93762 -2.33188 -1.46353 -1.93762 -3.41723 -3.94512 -1.93762 -2.33188 -3.94512 -4.51161 -1.96978 -2.77773 -4.18466 -5.03618 -2.77773 -3.41723 -5.03618 -5.75362 -4.18466 -5.03618 -6.73752 -7.57095 -5.03618 -5.75362 -7.57095 -8.28887 -3.41723 -3.94512 -5.75362 -6.41966 -3.94512 -4.51161 -6.41966 -7.17695 -5.75362 -6.41966 -8.28887 -9.01072 -6.41966 -7.17695 -9.01072 -9.84127 1.60196e-10 1.6448e-10 -0.110501 -0.467769 1.6448e-10 1.64191e-10 -0.467769 -0.769652 -0.110501 -0.467769 -0.416836 -0.934554 -0.467769 -0.769652 -0.934554 -1.44752 1.64191e-10 1.62461e-10 -0.769652 -0.990817 1.62461e-10 1.59045e-10 -0.990817 -1.11051 -0.769652 -0.990817 -1.44752 -1.9576 -0.990817 -1.11051 -1.9576 -2.32156 -0.416836 -0.934554 -0.74379 -1.31179 -0.934554 -1.44752 -1.31179 -1.95674 -0.74379 -1.31179 -1.17548 -1.67759 -1.31179 -1.95674 -1.67759 -2.24339 -1.44752 -1.9576 -1.95674 -2.80465 -1.9576 -2.32156 -2.80465 -3.65722 -1.95674 -2.80465 -2.24339 -3.11299 -2.80465 -3.65722 -3.11299 -4.61913 1.59045e-10 1.54028e-10 -1.11051 -1.12277 1.54028e-10 1.4873e-10 -1.12277 -1.05969 -1.11051 -1.12277 -2.32156 -2.41139 -1.12277 -1.05969 -2.41139 -2.35078 1.4873e-10 1.49058e-10 -1.05969 -0.968391 1.49058e-10 1.58924e-10 -0.968391 -0.839172 -1.05969 -0.968391 -2.35078 -2.28141 -0.968391 -0.839172 -2.28141 -2.21426 -2.32156 -2.41139 -3.65722 -3.90038 -2.41139 -2.35078 -3.90038 -3.87107 -3.65722 -3.90038 -4.61913 -5.26599 -3.90038 -3.87107 -5.26599 -5.42166 -2.35078 -2.28141 -3.87107 -3.76899 -2.28141 -2.21426 -3.76899 -3.57369 -3.87107 -3.76899 -5.42166 -5.43689 -3.76899 -3.57369 -5.43689 -5.30728 -1.17548 -1.67759 -2.33188 -2.81532 -1.67759 -2.24339 -2.81532 -3.52429 -2.33188 -2.81532 -4.51161 -5.29352 -2.81532 -3.52429 -5.29352 -6.26853 -2.24339 -3.11299 -3.52429 -4.531 -3.11299 -4.61913 -4.531 -5.73169 -3.52429 -4.531 -6.26853 -7.28401 -4.531 -5.73169 -7.28401 -8.30512 -4.51161 -5.29352 -7.17695 -8.09007 -5.29352 -6.26853 -8.09007 -9.10383 -7.17695 -8.09007 -9.84127 -10.809 -8.09007 -9.10383 -10.809 -11.8487 -6.26853 -7.28401 -9.10383 -10.0969 -7.28401 -8.30512 -10.0969 -11.1343 -9.10383 -10.0969 -11.8487 -12.9052 -10.0969 -11.1343 -12.9052 -14.002 -4.61913 -5.26599 -5.73169 -6.86423 -5.26599 -5.42166 -6.86423 -7.44654 -5.73169 -6.86423 -8.30512 -9.35049 -6.86423 -7.44654 -9.35049 -10.1895 -5.42166 -5.43689 -7.44654 -7.76431 -5.43689 -5.30728 -7.76431 -8.01663 -7.44654 -7.76431 -10.1895 -10.7996 -7.76431 -8.01663 -10.7996 -11.3131 -8.30512 -9.35049 -11.1343 -12.2215 -9.35049 -10.1895 -12.2215 -13.2379 -11.1343 -12.2215 -14.002 -15.1854 -12.2215 -13.2379 -15.1854 -16.4032 -10.1895 -10.7996 -13.2379 -14.0766 -10.7996 -11.3131 -14.0766 -14.7634 -13.2379 -14.0766 -16.4032 -17.5183 -14.0766 -14.7634 -17.5183 -18.472 1.58924e-10 2.03954e-10 -0.839172 -0.0517793 2.03954e-10 -2.05649e-08 -0.0517793 -1.80307 -0.839172 -0.0517793 -2.21426 -2.1694 -0.0517793 -1.80307 -2.1694 0.471721 -2.05649e-08 -1.08884e-08 -1.80307 0.545976 -1.08884e-08 -5.40511e-09 0.545976 0.919302 -1.80307 0.545976 0.471721 -0.512423 0.545976 0.919302 -0.512423 -1.31877 -2.21426 -2.1694 -3.57369 -2.81183 -2.1694 0.471721 -2.81183 -2.06255 -3.57369 -2.81183 -5.30728 -5.08809 -2.81183 -2.06255 -5.08809 -5.5945 0.471721 -0.512423 -2.06255 -3.39468 -0.512423 -1.31877 -3.39468 -4.48466 -2.06255 -3.39468 -5.5945 -6.66469 -3.39468 -4.48466 -6.66469 -7.6865 -5.40511e-09 3.51493e-10 0.919302 0.612533 3.51493e-10 4.20142e-10 0.612533 0.228613 0.919302 0.612533 -1.31877 -2.28805 0.612533 0.228613 -2.28805 -3.1016 4.20142e-10 3.15814e-10 0.228613 -0.470476 3.15814e-10 3.06915e-10 -0.470476 -1.19974 0.228613 -0.470476 -3.1016 -3.85798 -0.470476 -1.19974 -3.85798 -4.58477 -1.31877 -2.28805 -4.48466 -5.49755 -2.28805 -3.1016 -5.49755 -6.38695 -4.48466 -5.49755 -7.6865 -8.68034 -5.49755 -6.38695 -8.68034 -9.65039 -3.1016 -3.85798 -6.38695 -7.25039 -3.85798 -4.58477 -7.25039 -8.09559 -6.38695 -7.25039 -9.65039 -10.574 -7.25039 -8.09559 -10.574 -11.487 -5.30728 -5.08809 -8.01663 -8.39783 -5.08809 -5.5945 -8.39783 -9.11174 -8.01663 -8.39783 -11.3131 -11.8729 -8.39783 -9.11174 -11.8729 -12.5684 -5.5945 -6.66469 -9.11174 -10.0261 -6.66469 -7.6865 -10.0261 -10.9588 -9.11174 -10.0261 -12.5684 -13.3386 -10.0261 -10.9588 -13.3386 -14.1636 -11.3131 -11.8729 -14.7634 -15.3978 -11.8729 -12.5684 -15.3978 -16.0478 -14.7634 -15.3978 -18.472 -19.2697 -15.3978 -16.0478 -19.2697 -19.934 -12.5684 -13.3386 -16.0478 -16.7317 -13.3386 -14.1636 -16.7317 -17.444 -16.0478 -16.7317 -19.934 -20.525 -16.7317 -17.444 -20.525 -21.0659 -7.6865 -8.68034 -10.9588 -11.8602 -8.68034 -9.65039 -11.8602 -12.7972 -10.9588 -11.8602 -14.1636 -15.0101 -11.8602 -12.7972 -15.0101 -15.9143 -9.65039 -10.574 -12.7972 -13.8017 -10.574 -11.487 -13.8017 -14.8335 -12.7972 -13.8017 -15.9143 -16.8922 -13.8017 -14.8335 -16.8922 -18.0086 -14.1636 -15.0101 -17.444 -18.1641 -15.0101 -15.9143 -18.1641 -18.9092 -17.444 -18.1641 -21.0659 -21.6235 -18.1641 -18.9092 -21.6235 -22.1243 -15.9143 -16.8922 -18.9092 -19.8082 -16.8922 -18.0086 -19.8082 -20.9842 -18.9092 -19.8082 -22.1243 -22.482 -19.8082 -20.9842 -22.482 -22.9422 3.06915e-10 3.21749e-10 -1.19974 -1.87886 3.21749e-10 3.18101e-10 -1.87886 -2.61022 -1.19974 -1.87886 -4.58477 -5.32862 -1.87886 -2.61022 -5.32862 -6.08589 3.18101e-10 3.19168e-10 -2.61022 -3.33813 3.19168e-10 3.15551e-10 -3.33813 -3.9721 -2.61022 -3.33813 -6.08589 -6.90013 -3.33813 -3.9721 -6.90013 -7.75075 -4.58477 -5.32862 -8.09559 -8.92706 -5.32862 -6.08589 -8.92706 -9.73032 -8.09559 -8.92706 -11.487 -12.4491 -8.92706 -9.73032 -12.4491 -13.3842 -6.08589 -6.90013 -9.73032 -10.5712 -6.90013 -7.75075 -10.5712 -11.4793 -9.73032 -10.5712 -13.3842 -14.3009 -10.5712 -11.4793 -14.3009 -15.2238 3.15551e-10 3.13818e-10 -3.9721 -4.50176 3.13818e-10 3.13246e-10 -4.50176 -4.96569 -3.9721 -4.50176 -7.75075 -8.66007 -4.50176 -4.96569 -8.66007 -9.60868 3.13246e-10 3.12388e-10 -4.96569 -5.43336 3.12388e-10 3.12212e-10 -5.43336 -5.52084 -4.96569 -5.43336 -9.60868 -10.3285 -5.43336 -5.52084 -10.3285 -10.5484 -7.75075 -8.66007 -11.4793 -12.5483 -8.66007 -9.60868 -12.5483 -13.8181 -11.4793 -12.5483 -15.2238 -16.2667 -12.5483 -13.8181 -16.2667 -17.6622 -9.60868 -10.3285 -13.8181 -14.9742 -10.3285 -10.5484 -14.9742 -15.3833 -13.8181 -14.9742 -17.6622 -19.3292 -14.9742 -15.3833 -19.3292 -20.0397 -11.487 -12.4491 -14.8335 -15.8815 -12.4491 -13.3842 -15.8815 -16.954 -14.8335 -15.8815 -18.0086 -19.1533 -15.8815 -16.954 -19.1533 -20.4224 -13.3842 -14.3009 -16.954 -17.9383 -14.3009 -15.2238 -17.9383 -18.9383 -16.954 -17.9383 -20.4224 -21.4339 -17.9383 -18.9383 -21.4339 -22.2097 -18.0086 -19.1533 -20.9842 -21.9721 -19.1533 -20.4224 -21.9721 -22.921 -20.9842 -21.9721 -22.9422 -22.5947 -21.9721 -22.921 -22.5947 -25.657 -20.4224 -21.4339 -22.921 -23.1658 -21.4339 -22.2097 -23.1658 -24.3622 -22.921 -23.1658 -25.657 -27.7995 -23.1658 -24.3622 -27.7995 -29.235 -15.2238 -16.2667 -18.9383 -19.8579 -16.2667 -17.6622 -19.8579 -20.4567 -18.9383 -19.8579 -22.2097 -22.6583 -19.8579 -20.4567 -22.6583 -23.2003 -17.6622 -19.3292 -20.4567 -21.5982 -19.3292 -20.0397 -21.5982 -22.3091 -20.4567 -21.5982 -23.2003 -23.7119 -21.5982 -22.3091 -23.7119 -23.6517 -22.2097 -22.6583 -24.3622 -25.7968 -22.6583 -23.2003 -25.7968 -26.7134 -24.3622 -25.7968 -29.235 -30.1313 -25.7968 -26.7134 -30.1313 -30.8133 -23.2003 -23.7119 -26.7134 -27.0513 -23.7119 -23.6517 -27.0513 -27.0524 -26.7134 -27.0513 -30.8133 -31.0824 -27.0513 -27.0524 -31.0824 -31.1027 
SCALARS y_displacement double 1
LOOKUP_TABLE default