# vtk DataFile Version 3.0
#This file was generated by the deal.II library on 2016/3/9 at 8:35:56
ASCII
DATASET UNSTRUCTURED_GRID

POINTS 512 double
0 0 0
0.125 0 0
0 0.125 0
0.125 0.125 0
0.125 0 0
0.25 0 0
0.125 0.125 0
0.25 0.125 0
0 0.125 0
0.125 0.125 0
0 0.25 0
0.125 0.25 0
0.125 0.125 0
0.25 0.125 0
0.125 0.25 0
0.25 0.25 0
0.25 0 0
0.375 0 0
0.25 0.125 0
0.375 0.125 0
0.375 0 0
0.5 0 0
0.375 0.125 0
0.5 0.125 0
0.25 0.125 0
0.375 0.125 0
0.25 0.25 0
0.375 0.25 0
0.375 0.125 0
0.5 0.125 0
0.375 0.25 0
0.5 0.25 0
0 0.25 0
0.125 0.25 0
0 0.375 0
0.125 0.375 0
0.125 0.25 0
0.25 0.25 0
0.125 0.375 0
0.25 0.375 0
0 0.375 0
0.125 0.375 0
0 0.5 0
0.125 0.5 0
0.125 0.375 0
0.25 0.375 0
0.125 0.5 0
0.25 0.5 0
0.25 0.25 0
0.375 0.25 0
0.25 0.375 0
0.375 0.375 0
0.375 0.25 0
0.5 0.25 0
0.375 0.375 0
0.5 0.375 0
0.25 0.375 0
0.375 0.375 0
0.25 0.5 0
0.375 0.5 0
0.375 0.375 0
0.5 0.375 0
0.375 0.5 0
0.5 0.5 0
0.5 0 0
0.625 0 0
0.5 0.125 0
0.625 0.125 0
0.625 0 0
0.75 0 0
0.625 0.125 0
0.75 0.125 0
0.5 0.125 0
0.625 0.125 0
0.5 0.25 0
0.625 0.25 0
0.625 0.125 0
0.75 0.125 0
0.625 0.25 0
0.75 0.25 0
0.75 0 0
0.875 0 0
0.75 0.125 0
0.875 0.125 0
0.875 0 0
1 0 0
0.875 0.125 0
1 0.125 0
0.75 0.125 0
0.875 0.125 0
0.75 0.25 0
0.875 0.25 0
0.875 0.125 0
1 0.125 0
0.875 0.25 0
1 0.25 0
0.5 0.25 0
0.625 0.25 0
0.5 0.375 0
0.625 0.375 0
0.625 0.25 0
0.75 0.25 0
0.625 0.375 0
0.75 0.375 0
0.5 0.375 0
0.625 0.375 0
0.5 0.5 0
0.625 0.5 0
0.625 0.375 0
0.75 0.375 0
0.625 0.5 0
0.75 0.5 0
0.75 0.25 0
0.875 0.25 0
0.75 0.375 0
0.875 0.375 0
0.875 0.25 0
1 0.25 0
0.875 0.375 0
1 0.375 0
0.75 0.375 0
0.875 0.375 0
0.75 0.5 0
0.875 0.5 0
0.875 0.375 0
1 0.375 0
0.875 0.5 0
1 0.5 0
1 0 0
1.125 0 0
1 0.125 0
1.125 0.125 0
1.125 0 0
1.25 0 0
1.125 0.125 0
1.25 0.125 0
1 0.125 0
1.125 0.125 0
1 0.25 0
1.125 0.25 0
1.125 0.125 0
1.25 0.125 0
1.125 0.25 0
1.25 0.25 0
1.25 0 0
1.375 0 0
1.25 0.125 0
1.375 0.125 0
1.375 0 0
1.5 0 0
1.375 0.125 0
1.5 0.125 0
1.25 0.125 0
1.375 0.125 0
1.25 0.25 0
1.375 0.25 0
1.375 0.125 0
1.5 0.125 0
1.375 0.25 0
1.5 0.25 0
1 0.25 0
1.125 0.25 0
1 0.375 0
1.125 0.375 0
1.125 0.25 0
1.25 0.25 0
1.125 0.375 0
1.25 0.375 0
1 0.375 0
1.125 0.375 0
1 0.5 0
1.125 0.5 0
1.125 0.375 0
1.25 0.375 0
1.125 0.5 0
1.25 0.5 0
1.25 0.25 0
1.375 0.25 0
1.25 0.375 0
1.375 0.375 0
1.375 0.25 0
1.5 0.25 0
1.375 0.375 0
1.5 0.375 0
1.25 0.375 0
1.375 0.375 0
1.25 0.5 0
1.375 0.5 0
1.375 0.375 0
1.5 0.375 0
1.375 0.5 0
1.5 0.5 0
1.5 0 0
1.625 0 0
1.5 0.125 0
1.625 0.125 0
1.625 0 0
1.75 0 0
1.625 0.125 0
1.75 0.125 0
1.5 0.125 0
1.625 0.125 0
1.5 0.25 0
1.625 0.25 0
1.625 0.125 0
1.75 0.125 0
1.625 0.25 0
1.75 0.25 0
1.75 0 0
1.875 0 0
1.75 0.125 0
1.875 0.125 0
1.875 0 0
2 0 0
1.875 0.125 0
2 0.125 0
1.75 0.125 0
1.875 0.125 0
1.75 0.25 0
1.875 0.25 0
1.875 0.125 0
2 0.125 0
1.875 0.25 0
2 0.25 0
1.5 0.25 0
1.625 0.25 0
1.5 0.375 0
1.625 0.375 0
1.625 0.25 0
1.75 0.25 0
1.625 0.375 0
1.75 0.375 0
1.5 0.375 0
1.625 0.375 0
1.5 0.5 0
1.625 0.5 0
1.625 0.375 0
1.75 0.375 0
1.625 0.5 0
1.75 0.5 0
1.75 0.25 0
1.875 0.25 0
1.75 0.375 0
1.875 0.375 0
1.875 0.25 0
2 0.25 0
1.875 0.375 0
2 0.375 0
1.75 0.375 0
1.875 0.375 0
1.75 0.5 0
1.875 0.5 0
1.875 0.375 0
2 0.375 0
1.875 0.5 0
2 0.5 0
0 0.5 0
0.125 0.5 0
0 0.625 0
0.125 0.625 0
0.125 0.5 0
0.25 0.5 0
0.125 0.625 0
0.25 0.625 0
0 0.625 0
0.125 0.625 0
0 0.75 0
0.125 0.75 0
0.125 0.625 0
0.25 0.625 0
0.125 0.75 0
0.25 0.75 0
0.25 0.5 0
0.375 0.5 0
0.25 0.625 0
0.375 0.625 0
0.375 0.5 0
0.5 0.5 0
0.375 0.625 0
0.5 0.625 0
0.25 0.625 0
0.375 0.625 0
0.25 0.75 0
0.375 0.75 0
0.375 0.625 0
0.5 0.625 0
0.375 0.75 0
0.5 0.75 0
0 0.75 0
0.125 0.75 0
0 0.875 0
0.125 0.875 0
0.125 0.75 0
0.25 0.75 0
0.125 0.875 0
0.25 0.875 0
0 0.875 0
0.125 0.875 0
0 1 0
0.125 1 0
0.125 0.875 0
0.25 0.875 0
0.125 1 0
0.25 1 0
0.25 0.75 0
0.375 0.75 0
0.25 0.875 0
0.375 0.875 0
0.375 0.75 0
0.5 0.75 0
0.375 0.875 0
0.5 0.875 0
0.25 0.875 0
0.375 0.875 0
0.25 1 0
0.375 1 0
0.375 0.875 0
0.5 0.875 0
0.375 1 0
0.5 1 0
0.5 0.5 0
0.625 0.5 0
0.5 0.625 0
0.625 0.625 0
0.625 0.5 0
0.75 0.5 0
0.625 0.625 0
0.75 0.625 0
0.5 0.625 0
0.625 0.625 0
0.5 0.75 0
0.625 0.75 0
0.625 0.625 0
0.75 0.625 0
0.625 0.75 0
0.75 0.75 0
0.75 0.5 0
0.875 0.5 0
0.75 0.625 0
0.875 0.625 0
0.875 0.5 0
1 0.5 0
0.875 0.625 0
1 0.625 0
0.75 0.625 0
0.875 0.625 0
0.75 0.75 0
0.875 0.75 0
0.875 0.625 0
1 0.625 0
0.875 0.75 0
1 0.75 0
0.5 0.75 0
0.625 0.75 0
0.5 0.875 0
0.625 0.875 0
0.625 0.75 0
0.75 0.75 0
0.625 0.875 0
0.75 0.875 0
0.5 0.875 0
0.625 0.875 0
0.5 1 0
0.625 1 0
0.625 0.875 0
0.75 0.875 0
0.625 1 0
0.75 1 0
0.75 0.75 0
0.875 0.75 0
0.75 0.875 0
0.875 0.875 0
0.875 0.75 0
1 0.75 0
0.875 0.875 0
1 0.875 0
0.75 0.875 0
0.875 0.875 0
0.75 1 0
0.875 1 0
0.875 0.875 0
1 0.875 0
0.875 1 0
1 1 0
1 0.5 0
1.125 0.5 0
1 0.625 0
1.125 0.625 0
1.125 0.5 0
1.25 0.5 0
1.125 0.625 0
1.25 0.625 0
1 0.625 0
1.125 0.625 0
1 0.75 0
1.125 0.75 0
1.125 0.625 0
1.25 0.625 0
1.125 0.75 0
1.25 0.75 0
1.25 0.5 0
1.375 0.5 0
1.25 0.625 0
1.375 0.625 0
1.375 0.5 0
1.5 0.5 0
1.375 0.625 0
1.5 0.625 0
1.25 0.625 0
1.375 0.625 0
1.25 0.75 0
1.375 0.75 0
1.375 0.625 0
1.5 0.625 0
1.375 0.75 0
1.5 0.75 0
1 0.75 0
1.125 0.75 0
1 0.875 0
1.125 0.875 0
1.125 0.75 0
1.25 0.75 0
1.125 0.875 0
1.25 0.875 0
1 0.875 0
1.125 0.875 0
1 1 0
1.125 1 0
1.125 0.875 0
1.25 0.875 0
1.125 1 0
1.25 1 0
1.25 0.75 0
1.375 0.75 0
1.25 0.875 0
1.375 0.875 0
1.375 0.75 0
1.5 0.75 0
1.375 0.875 0
1.5 0.875 0
1.25 0.875 0
1.375 0.875 0
1.25 1 0
1.375 1 0
1.375 0.875 0
1.5 0.875 0
1.375 1 0
1.5 1 0
1.5 0.5 0
1.625 0.5 0
1.5 0.625 0
1.625 0.625 0
1.625 0.5 0
1.75 0.5 0
1.625 0.625 0
1.75 0.625 0
1.5 0.625 0
1.625 0.625 0
1.5 0.75 0
1.625 0.75 0
1.625 0.625 0
1.75 0.625 0
1.625 0.75 0
1.75 0.75 0
1.75 0.5 0
1.875 0.5 0
1.75 0.625 0
1.875 0.625 0
1.875 0.5 0
2 0.5 0
1.875 0.625 0
2 0.625 0
1.75 0.625 0
1.875 0.625 0
1.75 0.75 0
1.875 0.75 0
1.875 0.625 0
2 0.625 0
1.875 0.75 0
2 0.75 0
1.5 0.75 0
1.625 0.75 0
1.5 0.875 0
1.625 0.875 0
1.625 0.75 0
1.75 0.75 0
1.625 0.875 0
1.75 0.875 0
1.5 0.875 0
1.625 0.875 0
1.5 1 0
1.625 1 0
1.625 0.875 0
1.75 0.875 0
1.625 1 0
1.75 1 0
1.75 0.75 0
1.875 0.75 0
1.75 0.875 0
1.875 0.875 0
1.875 0.75 0
2 0.75 0
1.875 0.875 0
2 0.875 0
1.75 0.875 0
1.875 0.875 0
1.75 1 0
1.875 1 0
1.875 0.875 0
2 0.875 0
1.875 1 0
2 1 0

CELLS 128 640
4	0	1	3	2
4	4	5	7	6
4	8	9	11	10
4	12	13	15	14
4	16	17	19	18
4	20	21	23	22
4	24	25	27	26
4	28	29	31	30
4	32	33	35	34
4	36	37	39	38
4	40	41	43	42
4	44	45	47	46
4	48	49	51	50
4	52	53	55	54
4	56	57	59	58
4	60	61	63	62
4	64	65	67	66
4	68	69	71	70
4	72	73	75	74
4	76	77	79	78
4	80	81	83	82
4	84	85	87	86
4	88	89	91	90
4	92	93	95	94
4	96	97	99	98
4	100	101	103	102
4	104	105	107	106
4	108	109	111	110
4	112	113	115	114
4	116	117	119	118
4	120	121	123	122
4	124	125	127	126
4	128	129	131	130
4	132	133	135	134
4	136	137	139	138
4	140	141	143	142
4	144	145	147	146
4	148	149	151	150
4	152	153	155	154
4	156	157	159	158
4	160	161	163	162
4	164	165	167	166
4	168	169	171	170
4	172	173	175	174
4	176	177	179	178
4	180	181	183	182
4	184	185	187	186
4	188	189	191	190
4	192	193	195	194
4	196	197	199	198
4	200	201	203	202
4	204	205	207	206
4	208	209	211	210
4	212	213	215	214
4	216	217	219	218
4	220	221	223	222
4	224	225	227	226
4	228	229	231	230
4	232	233	235	234
4	236	237	239	238
4	240	241	243	242
4	244	245	247	246
4	248	249	251	250
4	252	253	255	254
4	256	257	259	258
4	260	261	263	262
4	264	265	267	266
4	268	269	271	270
4	272	273	275	274
4	276	277	279	278
4	280	281	283	282
4	284	285	287	286
4	288	289	291	290
4	292	293	295	294
4	296	297	299	298
4	300	301	303	302
4	304	305	307	306
4	308	309	311	310
4	312	313	315	314
4	316	317	319	318
4	320	321	323	322
4	324	325	327	326
4	328	329	331	330
4	332	333	335	334
4	336	337	339	338
4	340	341	343	342
4	344	345	347	346
4	348	349	351	350
4	352	353	355	354
4	356	357	359	358
4	360	361	363	362
4	364	365	367	366
4	368	369	371	370
4	372	373	375	374
4	376	377	379	378
4	380	381	383	382
4	384	385	387	386
4	388	389	391	390
4	392	393	395	394
4	396	397	399	398
4	400	401	403	402
4	404	405	407	406
4	408	409	411	410
4	412	413	415	414
4	416	417	419	418
4	420	421	423	422
4	424	425	427	426
4	428	429	431	430
4	432	433	435	434
4	436	437	439	438
4	440	441	443	442
4	444	445	447	446
4	448	449	451	450
4	452	453	455	454
4	456	457	459	458
4	460	461	463	462
4	464	465	467	466
4	468	469	471	470
4	472	473	475	474
4	476	477	479	478
4	480	481	483	482
4	484	485	487	486
4	488	489	491	490
4	492	493	495	494
4	496	497	499	498
4	500	501	503	502
4	504	505	507	506
4	508	509	511	510

CELL_TYPES 128
 9 9 9 9 9 9 9 9 9 9 9 9 9 9 9 9 9 9 9 9 9 9 9 9 9 9 9 9 9 9 9 9 9 9 9 9 9 9 9 9 9 9 9 9 9 9 9 9 9 9 9 9 9 9 9 9 9 9 9 9 9 9 9 9 9 9 9 9 9 9 9 9 9 9 9 9 9 9 9 9 9 9 9 9 9 9 9 9 9 9 9 9 9 9 9 9 9 9 9 9 9 9 9 9 9 9 9 9 9 9 9 9 9 9 9 9 9 9 9 9 9 9 9 9 9 9 9 9
POINT_DATA 512
SCALARS x_displacement double 1
LOOKUP_TABLE default
0 4.18935 0 0.61077 4.18935 7.8873 0.61077 1.96057 0 0.61077 0 -1.95459 0.61077 1.96057 -1.95459 -3.01502 7.8873 10.8072 1.96057 3.63592 10.8072 12.9912 3.63592 5.28821 1.96057 3.63592 -3.01502 -2.37105 3.63592 5.28821 -2.37105 -0.914339 0 -1.95459 0 -4.54156 -1.95459 -3.01502 -4.54156 -7.53756 0 -4.54156 0 -1.57214e-11 -4.54156 -7.53756 -1.57214e-11 -1.81726e-10 -3.01502 -2.37105 -7.53756 -5.18532 -2.37105 -0.914339 -5.18532 -1.51316 -7.53756 -5.18532 -1.81726e-10 -2.84298e-10 -5.18532 -1.51316 -2.84298e-10 -2.7344e-10 12.9912 15.1594 5.28821 7.01102 15.1594 18.0419 7.01102 9.24581 5.28821 7.01102 -0.914339 0.63918 7.01102 9.24581 0.63918 2.2 18.0419 21.0651 9.24581 11.5689 21.0651 23.4129 11.5689 13.419 9.24581 11.5689 2.2 3.4709 11.5689 13.419 3.4709 4.71034 -0.914339 0.63918 -1.51316 0.312359 0.63918 2.2 0.312359 1.21583 -1.51316 0.312359 -2.7344e-10 -2.73421e-10 0.312359 1.21583 -2.73421e-10 -2.72684e-10 2.2 3.4709 1.21583 1.29769 3.4709 4.71034 1.29769 0.0420277 1.21583 1.29769 -2.72684e-10 -2.69624e-10 1.29769 0.0420277 -2.69624e-10 -2.70919e-10 23.4129 25.2594 13.419 15.2558 25.2594 27.0274 15.2558 17.6352 13.419 15.2558 4.71034 6.70456 15.2558 17.6352 6.70456 9.50604 27.0274 28.9504 17.6352 20.2516 28.9504 31.0374 20.2516 22.729 17.6352 20.2516 9.50604 12.3401 20.2516 22.729 12.3401 15.0401 4.71034 6.70456 0.0420277 -1.32854 6.70456 9.50604 -1.32854 1.81156 0.0420277 -1.32854 -2.70919e-10 -2.66498e-10 -1.32854 1.81156 -2.66498e-10 -2.02926e-10 9.50604 12.3401 1.81156 4.68002 12.3401 15.0401 4.68002 7.33016 1.81156 4.68002 -2.02926e-10 -2.07421e-10 4.68002 7.33016 -2.07421e-10 -2.03971e-10 31.0374 33.4304 22.729 25.4315 33.4304 36.1861 25.4315 29.2971 22.729 25.4315 15.0401 18.1414 25.4315 29.2971 18.1414 22.1911 36.1861 35.32 29.2971 36.0723 35.32 45.236 36.0723 40.2377 29.2971 36.0723 22.1911 26.3481 36.0723 40.2377 26.3481 28.3234 15.0401 18.1414 7.33016 9.88277 18.1414 22.1911 9.88277 12.1496 7.33016 9.88277 -2.03971e-10 -2.01751e-10 9.88277 12.1496 -2.01751e-10 -2.00838e-10 22.1911 26.3481 12.1496 14.1306 26.3481 28.3234 14.1306 14.808 12.1496 14.1306 -2.00838e-10 -1.99992e-10 14.1306 14.808 -1.99992e-10 -2.00665e-10 0 -1.57214e-11 0 4.54156 -1.57214e-11 -1.81726e-10 4.54156 7.53756 0 4.54156 0 1.95459 4.54156 7.53756 1.95459 3.01502 -1.81726e-10 -2.84298e-10 7.53756 5.18532 -2.84298e-10 -2.7344e-10 5.18532 1.51316 7.53756 5.18532 3.01502 2.37105 5.18532 1.51316 2.37105 0.914339 0 1.95459 0 -0.61077 1.95459 3.01502 -0.61077 -1.96057 0 -0.61077 0 -4.18935 -0.61077 -1.96057 -4.18935 -7.8873 3.01502 2.37105 -1.96057 -3.63592 2.37105 0.914339 -3.63592 -5.28821 -1.96057 -3.63592 -7.8873 -10.8072 -3.63592 -5.28821 -10.8072 -12.9912 -2.7344e-10 -2.73421e-10 1.51316 -0.312359 -2.73421e-10 -2.72684e-10 -0.312359 -1.21583 1.51316 -0.312359 0.914339 -0.63918 -0.312359 -1.21583 -0.63918 -2.2 -2.72684e-10 -2.69624e-10 -1.21583 -1.29769 -2.69624e-10 -2.70919e-10 -1.29769 -0.0420277 -1.21583 -1.29769 -2.2 -3.4709 -1.29769 -0.0420277 -3.4709 -4.71034 0.914339 -0.63918 -5.28821 -7.01102 -0.63918 -2.2 -7.01102 -9.24581 -5.28821 -7.01102 -12.9912 -15.1594 -7.01102 -9.24581 -15.1594 -18.0419 -2.2 -3.4709 -9.24581 -11.5689 -3.4709 -4.71034 -11.5689 -13.419 -9.24581 -11.5689 -18.0419 -21.0651 -11.5689 -13.419 -21.0651 -23.4129 -2.70919e-10 -2.66498e-10 -0.0420277 1.32854 -2.66498e-10 -2.02926e-10 1.32854 -1.81156 -0.0420277 1.32854 -4.71034 -6.70456 1.32854 -1.81156 -6.70456 -9.50604 -2.02926e-10 -2.07421e-10 -1.81156 -4.68002 -2.07421e-10 -2.03971e-10 -4.68002 -7.33016 -1.81156 -4.68002 -9.50604 -12.3401 -4.68002 -7.33016 -12.3401 -15.0401 -4.71034 -6.70456 -13.419 -15.2558 -6.70456 -9.50604 -15.2558 -17.6352 -13.419 -15.2558 -23.4129 -25.2594 -15.2558 -17.6352 -25.2594 -27.0274 -9.50604 -12.3401 -17.6352 -20.2516 -12.3401 -15.0401 -20.2516 -22.729 -17.6352 -20.2516 -27.0274 -28.9504 -20.2516 -22.729 -28.9504 -31.0374 -2.03971e-10 -2.01751e-10 -7.33016 -9.88277 -2.01751e-10 -2.00838e-10 -9.88277 -12.1496 -7.33016 -9.88277 -15.0401 -18.1414 -9.88277 -12.1496 -18.1414 -22.1911 -2.00838e-10 -1.99992e-10 -12.1496 -14.1306 -1.99992e-10 -2.00665e-10 -14.1306 -14.808 -12.1496 -14.1306 -22.1911 -26.3481 -14.1306 -14.808 -26.3481 -28.3234 -15.0401 -18.1414 -22.729 -25.4315 -18.1414 -22.1911 -25.4315 -29.2971 -22.729 -25.4315 -31.0374 -33.4304 -25.4315 -29.2971 -33.4304 -36.1861 -22.1911 -26.3481 -29.2971 -36.0723 -26.3481 -28.3234 -36.0723 -40.2377 -29.2971 -36.0723 -36.1861 -35.32 -36.0723 -40.2377 -35.32 -45.236 
SCALARS y_displacement double 1
LOOKUP_TABLE default
0 3.25884 0 2.34199 3.25884 8.94082 2.34199 8.21136 0 2.34199 0 2.47104 2.34199 8.21136 2.47104 7.97012 8.94082 16.3846 8.21136 15.8269 16.3846 24.3212 15.8269 23.8637 8.21136 15.8269 7.97012 15.7975 15.8269 23.8637 15.7975 24.065 0 2.47104 0 3.38232 2.47104 7.97012 3.38232 8.05601 0 3.38232 0 4.78918 3.38232 8.05601 4.78918 8.10672 7.97012 15.7975 8.05601 16.9802 15.7975 24.065 16.9802 26.4005 8.05601 16.9802 8.10672 22.7089 16.9802 26.4005 22.7089 27.9768 24.3212 32.4134 23.8637 31.7729 32.4134 40.9188 31.7729 40.0085 23.8637 31.7729 24.065 31.6247 31.7729 40.0085 31.6247 38.9532 40.9188 50.2747 40.0085 49.4234 50.2747 60.6265 49.4234 59.9694 40.0085 49.4234 38.9532 47.9725 49.4234 59.9694 47.9725 58.8926 24.065 31.6247 26.4005 32.5561 31.6247 38.9532 32.5561 38.007 26.4005 32.5561 27.9768 32.8387 32.5561 38.007 32.8387 37.8325 38.9532 47.9725 38.007 44.6622 47.9725 58.8926 44.6622 55.4134 38.007 44.6622 37.8325 43.8527 44.6622 55.4134 43.8527 51.5568 60.6265 71.7558 59.9694 71.2395 71.7558 83.323 71.2395 82.9494 59.9694 71.2395 58.8926 70.6399 71.2395 82.9494 70.6399 82.6724 83.323 94.741 82.9494 94.375 94.741 105.702 94.375 105.303 82.9494 94.375 82.6724 94.0245 94.375 105.303 94.0245 104.907 58.8926 70.6399 55.4134 70.0179 70.6399 82.6724 70.0179 82.5331 55.4134 70.0179 51.5568 66.6661 70.0179 82.5331 66.6661 83.71 82.6724 94.0245 82.5331 93.7207 94.0245 104.907 93.7207 104.478 82.5331 93.7207 83.71 93.9499 93.7207 104.478 93.9499 104.39 105.702 116.874 105.303 116.539 116.874 129.452 116.539 129.342 105.303 116.539 104.907 116.233 116.539 129.342 116.233 129.294 129.452 142.198 129.342 144.992 142.198 158.341 144.992 159.552 129.342 144.992 129.294 144.764 144.992 159.552 144.764 160.16 104.907 116.233 104.478 115.899 116.233 129.294 115.899 129.045 104.478 115.899 104.39 115.776 115.899 129.045 115.776 128.986 129.294 144.764 129.045 144.684 144.764 160.16 144.684 161.04 129.045 144.684 128.986 144.307 144.684 161.04 144.307 163.186 0 4.78918 0 3.38232 4.78918 8.10672 3.38232 8.05601 0 3.38232 0 2.47104 3.38232 8.05601 2.47104 7.97012 8.10672 22.7089 8.05601 16.9802 22.7089 27.9768 16.9802 26.4005 8.05601 16.9802 7.97012 15.7975 16.9802 26.4005 15.7975 24.065 0 2.47104 0 2.34199 2.47104 7.97012 2.34199 8.21136 0 2.34199 0 3.25884 2.34199 8.21136 3.25884 8.94082 7.97012 15.7975 8.21136 15.8269 15.7975 24.065 15.8269 23.8637 8.21136 15.8269 8.94082 16.3846 15.8269 23.8637 16.3846 24.3212 27.9768 32.8387 26.4005 32.5561 32.8387 37.8325 32.5561 38.007 26.4005 32.5561 24.065 31.6247 32.5561 38.007 31.6247 38.9532 37.8325 43.8527 38.007 44.6622 43.8527 51.5568 44.6622 55.4134 38.007 44.6622 38.9532 47.9725 44.6622 55.4134 47.9725 58.8926 24.065 31.6247 23.8637 31.7729 31.6247 38.9532 31.7729 40.0085 23.8637 31.7729 24.3212 32.4134 31.7729 40.0085 32.4134 40.9188 38.9532 47.9725 40.0085 49.4234 47.9725 58.8926 49.4234 59.9694 40.0085 49.4234 40.9188 50.2747 49.4234 59.9694 50.2747 60.6265 51.5568 66.6661 55.4134 70.0179 66.6661 83.71 70.0179 82.5331 55.4134 70.0179 58.8926 70.6399 70.0179 82.5331 70.6399 82.6724 83.71 93.9499 82.5331 93.7207 93.9499 104.39 93.7207 104.478 82.5331 93.7207 82.6724 94.0245 93.7207 104.478 94.0245 104.907 58.8926 70.6399 59.9694 71.2395 70.6399 82.6724 71.2395 82.9494 59.9694 71.2395 60.6265 71.7558 71.2395 82.9494 71.7558 83.323 82.6724 94.0245 82.9494 94.375 94.0245 104.907 94.375 105.303 82.9494 94.375 83.323 94.741 94.375 105.303 94.741 105.702 104.39 115.776 104.478 115.899 115.776 128.986 115.899 129.045 104.478 115.899 104.907 116.233 115.899 129.045 116.233 129.294 128.986 144.307 129.045 144.684 144.307 163.186 144.684 161.04 129.045 144.684 129.294 144.764 144.684 161.04 144.764 160.16 104.907 116.233 105.303 116.539 116.233 129.294 116.539 129.342 105.303 116.539 105.702 116.874 116.539 129.342 116.874 129.452 129.294 144.764 129.342 144.992 144.764 160.16 144.992 159.552 129.342 144.992 129.452 142.198 144.992 159.552 142.198 158.341 
