# vtk DataFile Version 3.0
#This file was generated by the deal.II library on 2016/3/9 at 8:35:56
ASCII
DATASET UNSTRUCTURED_GRID

POINTS 512 double
0 0 0
0.125 0 0
0 0.125 0
0.125 0.125 0
0.125 0 0
0.25 0 0
0.125 0.125 0
0.25 0.125 0
0 0.125 0
0.125 0.125 0
0 0.25 0
0.125 0.25 0
0.125 0.125 0
0.25 0.125 0
0.125 0.25 0
0.25 0.25 0
0.25 0 0
0.375 0 0
0.25 0.125 0
0.375 0.125 0
0.375 0 0
0.5 0 0
0.375 0.125 0
0.5 0.125 0
0.25 0.125 0
0.375 0.125 0
0.25 0.25 0
0.375 0.25 0
0.375 0.125 0
0.5 0.125 0
0.375 0.25 0
0.5 0.25 0
0 0.25 0
0.125 0.25 0
0 0.375 0
0.125 0.375 0
0.125 0.25 0
0.25 0.25 0
0.125 0.375 0
0.25 0.375 0
0 0.375 0
0.125 0.375 0
0 0.5 0
0.125 0.5 0
0.125 0.375 0
0.25 0.375 0
0.125 0.5 0
0.25 0.5 0
0.25 0.25 0
0.375 0.25 0
0.25 0.375 0
0.375 0.375 0
0.375 0.25 0
0.5 0.25 0
0.375 0.375 0
0.5 0.375 0
0.25 0.375 0
0.375 0.375 0
0.25 0.5 0
0.375 0.5 0
0.375 0.375 0
0.5 0.375 0
0.375 0.5 0
0.5 0.5 0
0.5 0 0
0.625 0 0
0.5 0.125 0
0.625 0.125 0
0.625 0 0
0.75 0 0
0.625 0.125 0
0.75 0.125 0
0.5 0.125 0
0.625 0.125 0
0.5 0.25 0
0.625 0.25 0
0.625 0.125 0
0.75 0.125 0
0.625 0.25 0
0.75 0.25 0
0.75 0 0
0.875 0 0
0.75 0.125 0
0.875 0.125 0
0.875 0 0
1 0 0
0.875 0.125 0
1 0.125 0
0.75 0.125 0
0.875 0.125 0
0.75 0.25 0
0.875 0.25 0
0.875 0.125 0
1 0.125 0
0.875 0.25 0
1 0.25 0
0.5 0.25 0
0.625 0.25 0
0.5 0.375 0
0.625 0.375 0
0.625 0.25 0
0.75 0.25 0
0.625 0.375 0
0.75 0.375 0
0.5 0.375 0
0.625 0.375 0
0.5 0.5 0
0.625 0.5 0
0.625 0.375 0
0.75 0.375 0
0.625 0.5 0
0.75 0.5 0
0.75 0.25 0
0.875 0.25 0
0.75 0.375 0
0.875 0.375 0
0.875 0.25 0
1 0.25 0
0.875 0.375 0
1 0.375 0
0.75 0.375 0
0.875 0.375 0
0.75 0.5 0
0.875 0.5 0
0.875 0.375 0
1 0.375 0
0.875 0.5 0
1 0.5 0
1 0 0
1.125 0 0
1 0.125 0
1.125 0.125 0
1.125 0 0
1.25 0 0
1.125 0.125 0
1.25 0.125 0
1 0.125 0
1.125 0.125 0
1 0.25 0
1.125 0.25 0
1.125 0.125 0
1.25 0.125 0
1.125 0.25 0
1.25 0.25 0
1.25 0 0
1.375 0 0
1.25 0.125 0
1.375 0.125 0
1.375 0 0
1.5 0 0
1.375 0.125 0
1.5 0.125 0
1.25 0.125 0
1.375 0.125 0
1.25 0.25 0
1.375 0.25 0
1.375 0.125 0
1.5 0.125 0
1.375 0.25 0
1.5 0.25 0
1 0.25 0
1.125 0.25 0
1 0.375 0
1.125 0.375 0
1.125 0.25 0
1.25 0.25 0
1.125 0.375 0
1.25 0.375 0
1 0.375 0
1.125 0.375 0
1 0.5 0
1.125 0.5 0
1.125 0.375 0
1.25 0.375 0
1.125 0.5 0
1.25 0.5 0
1.25 0.25 0
1.375 0.25 0
1.25 0.375 0
1.375 0.375 0
1.375 0.25 0
1.5 0.25 0
1.375 0.375 0
1.5 0.375 0
1.25 0.375 0
1.375 0.375 0
1.25 0.5 0
1.375 0.5 0
1.375 0.375 0
1.5 0.375 0
1.375 0.5 0
1.5 0.5 0
1.5 0 0
1.625 0 0
1.5 0.125 0
1.625 0.125 0
1.625 0 0
1.75 0 0
1.625 0.125 0
1.75 0.125 0
1.5 0.125 0
1.625 0.125 0
1.5 0.25 0
1.625 0.25 0
1.625 0.125 0
1.75 0.125 0
1.625 0.25 0
1.75 0.25 0
1.75 0 0
1.875 0 0
1.75 0.125 0
1.875 0.125 0
1.875 0 0
2 0 0
1.875 0.125 0
2 0.125 0
1.75 0.125 0
1.875 0.125 0
1.75 0.25 0
1.875 0.25 0
1.875 0.125 0
2 0.125 0
1.875 0.25 0
2 0.25 0
1.5 0.25 0
1.625 0.25 0
1.5 0.375 0
1.625 0.375 0
1.625 0.25 0
1.75 0.25 0
1.625 0.375 0
1.75 0.375 0
1.5 0.375 0
1.625 0.375 0
1.5 0.5 0
1.625 0.5 0
1.625 0.375 0
1.75 0.375 0
1.625 0.5 0
1.75 0.5 0
1.75 0.25 0
1.875 0.25 0
1.75 0.375 0
1.875 0.375 0
1.875 0.25 0
2 0.25 0
1.875 0.375 0
2 0.375 0
1.75 0.375 0
1.875 0.375 0
1.75 0.5 0
1.875 0.5 0
1.875 0.375 0
2 0.375 0
1.875 0.5 0
2 0.5 0
0 0.5 0
0.125 0.5 0
0 0.625 0
0.125 0.625 0
0.125 0.5 0
0.25 0.5 0
0.125 0.625 0
0.25 0.625 0
0 0.625 0
0.125 0.625 0
0 0.75 0
0.125 0.75 0
0.125 0.625 0
0.25 0.625 0
0.125 0.75 0
0.25 0.75 0
0.25 0.5 0
0.375 0.5 0
0.25 0.625 0
0.375 0.625 0
0.375 0.5 0
0.5 0.5 0
0.375 0.625 0
0.5 0.625 0
0.25 0.625 0
0.375 0.625 0
0.25 0.75 0
0.375 0.75 0
0.375 0.625 0
0.5 0.625 0
0.375 0.75 0
0.5 0.75 0
0 0.75 0
0.125 0.75 0
0 0.875 0
0.125 0.875 0
0.125 0.75 0
0.25 0.75 0
0.125 0.875 0
0.25 0.875 0
0 0.875 0
0.125 0.875 0
0 1 0
0.125 1 0
0.125 0.875 0
0.25 0.875 0
0.125 1 0
0.25 1 0
0.25 0.75 0
0.375 0.75 0
0.25 0.875 0
0.375 0.875 0
0.375 0.75 0
0.5 0.75 0
0.375 0.875 0
0.5 0.875 0
0.25 0.875 0
0.375 0.875 0
0.25 1 0
0.375 1 0
0.375 0.875 0
0.5 0.875 0
0.375 1 0
0.5 1 0
0.5 0.5 0
0.625 0.5 0
0.5 0.625 0
0.625 0.625 0
0.625 0.5 0
0.75 0.5 0
0.625 0.625 0
0.75 0.625 0
0.5 0.625 0
0.625 0.625 0
0.5 0.75 0
0.625 0.75 0
0.625 0.625 0
0.75 0.625 0
0.625 0.75 0
0.75 0.75 0
0.75 0.5 0
0.875 0.5 0
0.75 0.625 0
0.875 0.625 0
0.875 0.5 0
1 0.5 0
0.875 0.625 0
1 0.625 0
0.75 0.625 0
0.875 0.625 0
0.75 0.75 0
0.875 0.75 0
0.875 0.625 0
1 0.625 0
0.875 0.75 0
1 0.75 0
0.5 0.75 0
0.625 0.75 0
0.5 0.875 0
0.625 0.875 0
0.625 0.75 0
0.75 0.75 0
0.625 0.875 0
0.75 0.875 0
0.5 0.875 0
0.625 0.875 0
0.5 1 0
0.625 1 0
0.625 0.875 0
0.75 0.875 0
0.625 1 0
0.75 1 0
0.75 0.75 0
0.875 0.75 0
0.75 0.875 0
0.875 0.875 0
0.875 0.75 0
1 0.75 0
0.875 0.875 0
1 0.875 0
0.75 0.875 0
0.875 0.875 0
0.75 1 0
0.875 1 0
0.875 0.875 0
1 0.875 0
0.875 1 0
1 1 0
1 0.5 0
1.125 0.5 0
1 0.625 0
1.125 0.625 0
1.125 0.5 0
1.25 0.5 0
1.125 0.625 0
1.25 0.625 0
1 0.625 0
1.125 0.625 0
1 0.75 0
1.125 0.75 0
1.125 0.625 0
1.25 0.625 0
1.125 0.75 0
1.25 0.75 0
1.25 0.5 0
1.375 0.5 0
1.25 0.625 0
1.375 0.625 0
1.375 0.5 0
1.5 0.5 0
1.375 0.625 0
1.5 0.625 0
1.25 0.625 0
1.375 0.625 0
1.25 0.75 0
1.375 0.75 0
1.375 0.625 0
1.5 0.625 0
1.375 0.75 0
1.5 0.75 0
1 0.75 0
1.125 0.75 0
1 0.875 0
1.125 0.875 0
1.125 0.75 0
1.25 0.75 0
1.125 0.875 0
1.25 0.875 0
1 0.875 0
1.125 0.875 0
1 1 0
1.125 1 0
1.125 0.875 0
1.25 0.875 0
1.125 1 0
1.25 1 0
1.25 0.75 0
1.375 0.75 0
1.25 0.875 0
1.375 0.875 0
1.375 0.75 0
1.5 0.75 0
1.375 0.875 0
1.5 0.875 0
1.25 0.875 0
1.375 0.875 0
1.25 1 0
1.375 1 0
1.375 0.875 0
1.5 0.875 0
1.375 1 0
1.5 1 0
1.5 0.5 0
1.625 0.5 0
1.5 0.625 0
1.625 0.625 0
1.625 0.5 0
1.75 0.5 0
1.625 0.625 0
1.75 0.625 0
1.5 0.625 0
1.625 0.625 0
1.5 0.75 0
1.625 0.75 0
1.625 0.625 0
1.75 0.625 0
1.625 0.75 0
1.75 0.75 0
1.75 0.5 0
1.875 0.5 0
1.75 0.625 0
1.875 0.625 0
1.875 0.5 0
2 0.5 0
1.875 0.625 0
2 0.625 0
1.75 0.625 0
1.875 0.625 0
1.75 0.75 0
1.875 0.75 0
1.875 0.625 0
2 0.625 0
1.875 0.75 0
2 0.75 0
1.5 0.75 0
1.625 0.75 0
1.5 0.875 0
1.625 0.875 0
1.625 0.75 0
1.75 0.75 0
1.625 0.875 0
1.75 0.875 0
1.5 0.875 0
1.625 0.875 0
1.5 1 0
1.625 1 0
1.625 0.875 0
1.75 0.875 0
1.625 1 0
1.75 1 0
1.75 0.75 0
1.875 0.75 0
1.75 0.875 0
1.875 0.875 0
1.875 0.75 0
2 0.75 0
1.875 0.875 0
2 0.875 0
1.75 0.875 0
1.875 0.875 0
1.75 1 0
1.875 1 0
1.875 0.875 0
2 0.875 0
1.875 1 0
2 1 0

CELLS 128 640
4	0	1	3	2
4	4	5	7	6
4	8	9	11	10
4	12	13	15	14
4	16	17	19	18
4	20	21	23	22
4	24	25	27	26
4	28	29	31	30
4	32	33	35	34
4	36	37	39	38
4	40	41	43	42
4	44	45	47	46
4	48	49	51	50
4	52	53	55	54
4	56	57	59	58
4	60	61	63	62
4	64	65	67	66
4	68	69	71	70
4	72	73	75	74
4	76	77	79	78
4	80	81	83	82
4	84	85	87	86
4	88	89	91	90
4	92	93	95	94
4	96	97	99	98
4	100	101	103	102
4	104	105	107	106
4	108	109	111	110
4	112	113	115	114
4	116	117	119	118
4	120	121	123	122
4	124	125	127	126
4	128	129	131	130
4	132	133	135	134
4	136	137	139	138
4	140	141	143	142
4	144	145	147	146
4	148	149	151	150
4	152	153	155	154
4	156	157	159	158
4	160	161	163	162
4	164	165	167	166
4	168	169	171	170
4	172	173	175	174
4	176	177	179	178
4	180	181	183	182
4	184	185	187	186
4	188	189	191	190
4	192	193	195	194
4	196	197	199	198
4	200	201	203	202
4	204	205	207	206
4	208	209	211	210
4	212	213	215	214
4	216	217	219	218
4	220	221	223	222
4	224	225	227	226
4	228	229	231	230
4	232	233	235	234
4	236	237	239	238
4	240	241	243	242
4	244	245	247	246
4	248	249	251	250
4	252	253	255	254
4	256	257	259	258
4	260	261	263	262
4	264	265	267	266
4	268	269	271	270
4	272	273	275	274
4	276	277	279	278
4	280	281	283	282
4	284	285	287	286
4	288	289	291	290
4	292	293	295	294
4	296	297	299	298
4	300	301	303	302
4	304	305	307	306
4	308	309	311	310
4	312	313	315	314
4	316	317	319	318
4	320	321	323	322
4	324	325	327	326
4	328	329	331	330
4	332	333	335	334
4	336	337	339	338
4	340	341	343	342
4	344	345	347	346
4	348	349	351	350
4	352	353	355	354
4	356	357	359	358
4	360	361	363	362
4	364	365	367	366
4	368	369	371	370
4	372	373	375	374
4	376	377	379	378
4	380	381	383	382
4	384	385	387	386
4	388	389	391	390
4	392	393	395	394
4	396	397	399	398
4	400	401	403	402
4	404	405	407	406
4	408	409	411	410
4	412	413	415	414
4	416	417	419	418
4	420	421	423	422
4	424	425	427	426
4	428	429	431	430
4	432	433	435	434
4	436	437	439	438
4	440	441	443	442
4	444	445	447	446
4	448	449	451	450
4	452	453	455	454
4	456	457	459	458
4	460	461	463	462
4	464	465	467	466
4	468	469	471	470
4	472	473	475	474
4	476	477	479	478
4	480	481	483	482
4	484	485	487	486
4	488	489	491	490
4	492	493	495	494
4	496	497	499	498
4	500	501	503	502
4	504	505	507	506
4	508	509	511	510

CELL_TYPES 128
 9 9 9 9 9 9 9 9 9 9 9 9 9 9 9 9 9 9 9 9 9 9 9 9 9 9 9 9 9 9 9 9 9 9 9 9 9 9 9 9 9 9 9 9 9 9 9 9 9 9 9 9 9 9 9 9 9 9 9 9 9 9 9 9 9 9 9 9 9 9 9 9 9 9 9 9 9 9 9 9 9 9 9 9 9 9 9 9 9 9 9 9 9 9 9 9 9 9 9 9 9 9 9 9 9 9 9 9 9 9 9 9 9 9 9 9 9 9 9 9 9 9 9 9 9 9 9 9
POINT_DATA 512
SCALARS x_displacement double 1
LOOKUP_TABLE default
0 4.22772 0 0.622383 4.22772 7.89232 0.622383 1.96327 0 0.622383 0 -1.95189 0.622383 1.96327 -1.95189 -2.9286 7.89232 10.9032 1.96327 3.75782 10.9032 13.3082 3.75782 5.76234 1.96327 3.75782 -2.9286 -2.09908 3.75782 5.76234 -2.09908 -0.245249 0 -1.95189 0 -4.55483 -1.95189 -2.9286 -4.55483 -7.27821 0 -4.55483 0 1.85578e-13 -4.55483 -7.27821 1.85578e-13 6.98683e-12 -2.9286 -2.09908 -7.27821 -4.57422 -2.09908 -0.245249 -4.57422 -1.39839 -7.27821 -4.57422 6.98683e-12 7.69088e-12 -4.57422 -1.39839 7.69088e-12 3.90992e-12 13.3082 15.5868 5.76234 7.70716 15.5868 18.2102 7.70716 9.6339 5.76234 7.70716 -0.245249 1.24606 7.70716 9.6339 1.24606 2.34256 18.2102 20.9227 9.6339 11.5067 20.9227 23.3511 11.5067 13.3428 9.6339 11.5067 2.34256 3.3115 11.5067 13.3428 3.3115 4.59303 -0.245249 1.24606 -1.39839 -0.364293 1.24606 2.34256 -0.364293 0.0284661 -1.39839 -0.364293 3.90992e-12 6.75028e-12 -0.364293 0.0284661 6.75028e-12 6.54457e-12 2.34256 3.3115 0.0284661 -0.217545 3.3115 4.59303 -0.217545 -1.61502 0.0284661 -0.217545 6.54457e-12 8.7554e-12 -0.217545 -1.61502 8.7554e-12 1.29125e-11 23.3511 25.4395 13.3428 15.3995 25.4395 27.4175 15.3995 17.8944 13.3428 15.3995 4.59303 6.78511 15.3995 17.8944 6.78511 9.724 27.4175 29.3986 17.8944 20.5931 29.3986 31.6207 20.5931 23.4808 17.8944 20.5931 9.724 12.8384 20.5931 23.4808 12.8384 16.0018 4.59303 6.78511 -1.61502 -1.27236 6.78511 9.724 -1.27236 2.24237 -1.61502 -1.27236 1.29125e-11 2.32464e-11 -1.27236 2.24237 2.32464e-11 1.02543e-11 9.724 12.8384 2.24237 5.46277 12.8384 16.0018 5.46277 8.14199 2.24237 5.46277 1.02543e-11 5.60846e-12 5.46277 8.14199 5.60846e-12 3.40524e-12 31.6207 34.6241 23.4808 27.0453 34.6241 39.3605 27.0453 31.7497 23.4808 27.0453 16.0018 19.508 27.0453 31.7497 19.508 23.6955 39.3605 42.9979 31.7497 38.6639 42.9979 48.4921 38.6639 42.5717 31.7497 38.6639 23.6955 27.894 38.6639 42.5717 27.894 29.8754 16.0018 19.508 8.14199 10.5008 19.508 23.6955 10.5008 12.7655 8.14199 10.5008 3.40524e-12 1.31609e-12 10.5008 12.7655 1.31609e-12 -2.18498e-14 23.6955 27.894 12.7655 14.9966 27.894 29.8754 14.9966 15.7087 12.7655 14.9966 -2.18498e-14 -2.188e-12 14.9966 15.7087 -2.188e-12 -1.54529e-12 0 1.85578e-13 0 4.55483 1.85578e-13 6.98683e-12 4.55483 7.27821 0 4.55483 0 1.95189 4.55483 7.27821 1.95189 2.9286 6.98683e-12 7.69088e-12 7.27821 4.57422 7.69088e-12 3.90992e-12 4.57422 1.39839 7.27821 4.57422 2.9286 2.09908 4.57422 1.39839 2.09908 0.245249 0 1.95189 0 -0.622383 1.95189 2.9286 -0.622383 -1.96327 0 -0.622383 0 -4.22772 -0.622383 -1.96327 -4.22772 -7.89232 2.9286 2.09908 -1.96327 -3.75782 2.09908 0.245249 -3.75782 -5.76234 -1.96327 -3.75782 -7.89232 -10.9032 -3.75782 -5.76234 -10.9032 -13.3082 3.90992e-12 6.75028e-12 1.39839 0.364293 6.75028e-12 6.54457e-12 0.364293 -0.0284661 1.39839 0.364293 0.245249 -1.24606 0.364293 -0.0284661 -1.24606 -2.34256 6.54457e-12 8.7554e-12 -0.0284661 0.217545 8.7554e-12 1.29125e-11 0.217545 1.61502 -0.0284661 0.217545 -2.34256 -3.3115 0.217545 1.61502 -3.3115 -4.59303 0.245249 -1.24606 -5.76234 -7.70716 -1.24606 -2.34256 -7.70716 -9.6339 -5.76234 -7.70716 -13.3082 -15.5868 -7.70716 -9.6339 -15.5868 -18.2102 -2.34256 -3.3115 -9.6339 -11.5067 -3.3115 -4.59303 -11.5067 -13.3428 -9.6339 -11.5067 -18.2102 -20.9227 -11.5067 -13.3428 -20.9227 -23.3511 1.29125e-11 2.32464e-11 1.61502 1.27236 2.32464e-11 1.02543e-11 1.27236 -2.24237 1.61502 1.27236 -4.59303 -6.78511 1.27236 -2.24237 -6.78511 -9.724 1.02543e-11 5.60846e-12 -2.24237 -5.46277 5.60846e-12 3.40524e-12 -5.46277 -8.14199 -2.24237 -5.46277 -9.724 -12.8384 -5.46277 -8.14199 -12.8384 -16.0018 -4.59303 -6.78511 -13.3428 -15.3995 -6.78511 -9.724 -15.3995 -17.8944 -13.3428 -15.3995 -23.3511 -25.4395 -15.3995 -17.8944 -25.4395 -27.4175 -9.724 -12.8384 -17.8944 -20.5931 -12.8384 -16.0018 -20.5931 -23.4808 -17.8944 -20.5931 -27.4175 -29.3986 -20.5931 -23.4808 -29.3986 -31.6207 3.40524e-12 1.31609e-12 -8.14199 -10.5008 1.31609e-12 -2.18498e-14 -10.5008 -12.7655 -8.14199 -10.5008 -16.0018 -19.508 -10.5008 -12.7655 -19.508 -23.6955 -2.18498e-14 -2.188e-12 -12.7655 -14.9966 -2.188e-12 -1.54529e-12 -14.9966 -15.7087 -12.7655 -14.9966 -23.6955 -27.894 -14.9966 -15.7087 -27.894 -29.8754 -16.0018 -19.508 -23.4808 -27.0453 -19.508 -23.6955 -27.0453 -31.7497 -23.4808 -27.0453 -31.6207 -34.6241 -27.0453 -31.7497 -34.6241 -39.3605 -23.6955 -27.894 -31.7497 -38.6639 -27.894 -29.8754 -38.6639 -42.5717 -31.7497 -38.6639 -39.3605 -42.9979 -38.6639 -42.5717 -42.9979 -48.4921 
SCALARS y_displacement double 1
LOOKUP_TABLE default
0 3.28833 0 2.37794 3.28833 8.97637 2.37794 8.23344 0 2.37794 0 2.51002 2.37794 8.23344 2.51002 7.95797 8.97637 16.4897 8.23344 15.8623 16.4897 24.4756 15.8623 23.969 8.23344 15.8623 7.95797 15.7546 15.8623 23.969 15.7546 24.2382 0 2.51002 0 3.41396 2.51002 7.95797 3.41396 7.9455 0 3.41396 0 4.87065 3.41396 7.9455 4.87065 7.6835 7.95797 15.7546 7.9455 17.1314 15.7546 24.2382 17.1314 26.8075 7.9455 17.1314 7.6835 23.3366 17.1314 26.8075 23.3366 28.4606 24.4756 32.3552 23.969 31.7503 32.3552 40.5285 31.7503 39.7366 23.969 31.7503 24.2382 31.6782 31.7503 39.7366 31.6782 38.8075 40.5285 49.748 39.7366 48.9353 49.748 60.2303 48.9353 59.5461 39.7366 48.9353 38.8075 47.6578 48.9353 59.5461 47.6578 58.626 24.2382 31.6782 26.8075 32.486 31.6782 38.8075 32.486 37.6585 26.8075 32.486 28.4606 32.8284 32.486 37.6585 32.8284 37.3329 38.8075 47.6578 37.6585 44.6549 47.6578 58.626 44.6549 56.4032 37.6585 44.6549 37.3329 43.1618 44.6549 56.4032 43.1618 52.0543 60.2303 71.5999 59.5461 71.0622 71.5999 83.3145 71.0622 82.8757 59.5461 71.0622 58.626 70.536 71.0622 82.8757 70.536 82.5218 83.3145 94.7509 82.8757 94.3061 94.7509 105.918 94.3061 105.42 82.8757 94.3061 82.5218 93.8642 94.3061 105.42 93.8642 104.924 58.626 70.536 56.4032 70.0776 70.536 82.5218 70.0776 82.2644 56.4032 70.0776 52.0543 69.5269 70.0776 82.2644 69.5269 82.9207 82.5218 93.8642 82.2644 93.4912 93.8642 104.924 93.4912 104.458 82.2644 93.4912 82.9207 93.5739 93.4912 104.458 93.5739 104.32 105.918 117.666 105.42 117.209 117.666 131.348 117.209 130.825 105.42 117.209 104.924 116.75 117.209 130.825 116.75 130.613 131.348 146.751 130.825 147.459 146.751 160.258 147.459 163.016 130.825 147.459 130.613 147.228 147.459 163.016 147.228 163.626 104.924 116.75 104.458 116.351 116.75 130.613 116.351 130.27 104.458 116.351 104.32 116.222 116.351 130.27 116.222 130.193 130.613 147.228 130.27 147.17 147.228 163.626 147.17 164.722 130.27 147.17 130.193 146.709 147.17 164.722 146.709 167.367 0 4.87065 0 3.41396 4.87065 7.6835 3.41396 7.9455 0 3.41396 0 2.51002 3.41396 7.9455 2.51002 7.95797 7.6835 23.3366 7.9455 17.1314 23.3366 28.4606 17.1314 26.8075 7.9455 17.1314 7.95797 15.7546 17.1314 26.8075 15.7546 24.2382 0 2.51002 0 2.37794 2.51002 7.95797 2.37794 8.23344 0 2.37794 0 3.28833 2.37794 8.23344 3.28833 8.97637 7.95797 15.7546 8.23344 15.8623 15.7546 24.2382 15.8623 23.969 8.23344 15.8623 8.97637 16.4897 15.8623 23.969 16.4897 24.4756 28.4606 32.8284 26.8075 32.486 32.8284 37.3329 32.486 37.6585 26.8075 32.486 24.2382 31.6782 32.486 37.6585 31.6782 38.8075 37.3329 43.1618 37.6585 44.6549 43.1618 52.0543 44.6549 56.4032 37.6585 44.6549 38.8075 47.6578 44.6549 56.4032 47.6578 58.626 24.2382 31.6782 23.969 31.7503 31.6782 38.8075 31.7503 39.7366 23.969 31.7503 24.4756 32.3552 31.7503 39.7366 32.3552 40.5285 38.8075 47.6578 39.7366 48.9353 47.6578 58.626 48.9353 59.5461 39.7366 48.9353 40.5285 49.748 48.9353 59.5461 49.748 60.2303 52.0543 69.5269 56.4032 70.0776 69.5269 82.9207 70.0776 82.2644 56.4032 70.0776 58.626 70.536 70.0776 82.2644 70.536 82.5218 82.9207 93.5739 82.2644 93.4912 93.5739 104.32 93.4912 104.458 82.2644 93.4912 82.5218 93.8642 93.4912 104.458 93.8642 104.924 58.626 70.536 59.5461 71.0622 70.536 82.5218 71.0622 82.8757 59.5461 71.0622 60.2303 71.5999 71.0622 82.8757 71.5999 83.3145 82.5218 93.8642 82.8757 94.3061 93.8642 104.924 94.3061 105.42 82.8757 94.3061 83.3145 94.7509 94.3061 105.42 94.7509 105.918 104.32 116.222 104.458 116.351 116.222 130.193 116.351 130.27 104.458 116.351 104.924 116.75 116.351 130.27 116.75 130.613 130.193 146.709 130.27 147.17 146.709 167.367 147.17 164.722 130.27 147.17 130.613 147.228 147.17 164.722 147.228 163.626 104.924 116.75 105.42 117.209 116.75 130.613 117.209 130.825 105.42 117.209 105.918 117.666 117.209 130.825 117.666 131.348 130.613 147.228 130.825 147.459 147.228 163.626 147.459 163.016 130.825 147.459 131.348 146.751 147.459 163.016 146.751 160.258 
