# vtk DataFile Version 3.0
#This file was generated by the deal.II library on 2015/9/2 at 7:53:28
ASCII
DATASET UNSTRUCTURED_GRID

POINTS 18152 double
0 0 0
0.05 0 0
0 0.05 0
0.05 0.05 0
0.05 0 0
0.1 0 0
0.05 0.05 0
0.1 0.05 0
0.1 0 0
0.15 0 0
0.1 0.05 0
0.15 0.05 0
0.15 0 0
0.2 0 0
0.15 0.05 0
0.2 0.05 0
0.2 0 0
0.25 0 0
0.2 0.05 0
0.25 0.05 0
0.25 0 0
0.3 0 0
0.25 0.05 0
0.3 0.05 0
0.3 0 0
0.35 0 0
0.3 0.05 0
0.35 0.05 0
0.35 0 0
0.4 0 0
0.35 0.05 0
0.4 0.05 0
0.4 0 0
0.45 0 0
0.4 0.05 0
0.45 0.05 0
0.45 0 0
0.5 0 0
0.45 0.05 0
0.5 0.05 0
0.5 0 0
0.55 0 0
0.5 0.05 0
0.55 0.05 0
0.55 0 0
0.6 0 0
0.55 0.05 0
0.6 0.05 0
0.6 0 0
0.65 0 0
0.6 0.05 0
0.65 0.05 0
0.65 0 0
0.7 0 0
0.65 0.05 0
0.7 0.05 0
0.7 0 0
0.75 0 0
0.7 0.05 0
0.75 0.05 0
0.75 0 0
0.8 0 0
0.75 0.05 0
0.8 0.05 0
0.8 0 0
0.85 0 0
0.8 0.05 0
0.85 0.05 0
0.85 0 0
0.9 0 0
0.85 0.05 0
0.9 0.05 0
0.9 0 0
0.95 0 0
0.9 0.05 0
0.95 0.05 0
0.95 0 0
1 0 0
0.95 0.05 0
1 0.05 0
1 0 0
1.05 0 0
1 0.05 0
1.05 0.05 0
1.05 0 0
1.1 0 0
1.05 0.05 0
1.1 0.05 0
1.1 0 0
1.15 0 0
1.1 0.05 0
1.15 0.05 0
1.15 0 0
1.2 0 0
1.15 0.05 0
1.2 0.05 0
1.2 0 0
1.25 0 0
1.2 0.05 0
1.25 0.05 0
1.45 0 0
1.5 0 0
1.45 0.05 0
1.5 0.05 0
1.5 0 0
1.55 0 0
1.5 0.05 0
1.55 0.05 0
1.55 0 0
1.6 0 0
1.55 0.05 0
1.6 0.05 0
1.6 0 0
1.65 0 0
1.6 0.05 0
1.65 0.05 0
1.65 0 0
1.7 0 0
1.65 0.05 0
1.7 0.05 0
1.7 0 0
1.75 0 0
1.7 0.05 0
1.75 0.05 0
1.75 0 0
1.8 0 0
1.75 0.05 0
1.8 0.05 0
1.8 0 0
1.85 0 0
1.8 0.05 0
1.85 0.05 0
1.85 0 0
1.9 0 0
1.85 0.05 0
1.9 0.05 0
1.9 0 0
1.95 0 0
1.9 0.05 0
1.95 0.05 0
1.95 0 0
2 0 0
1.95 0.05 0
2 0.05 0
0 0.05 0
0.05 0.05 0
0 0.1 0
0.05 0.1 0
0.05 0.05 0
0.1 0.05 0
0.05 0.1 0
0.1 0.1 0
0.1 0.05 0
0.15 0.05 0
0.1 0.1 0
0.15 0.1 0
0.15 0.05 0
0.2 0.05 0
0.15 0.1 0
0.2 0.1 0
0.2 0.05 0
0.25 0.05 0
0.2 0.1 0
0.25 0.1 0
0.25 0.05 0
0.3 0.05 0
0.25 0.1 0
0.3 0.1 0
0.3 0.05 0
0.35 0.05 0
0.3 0.1 0
0.35 0.1 0
0.35 0.05 0
0.4 0.05 0
0.35 0.1 0
0.4 0.1 0
1.15 0.05 0
1.2 0.05 0
1.15 0.1 0
1.2 0.1 0
1.2 0.05 0
1.25 0.05 0
1.2 0.1 0
1.25 0.1 0
1.25 0.05 0
1.3 0.05 0
1.25 0.1 0
1.3 0.1 0
1.55 0.05 0
1.6 0.05 0
1.55 0.1 0
1.6 0.1 0
1.6 0.05 0
1.65 0.05 0
1.6 0.1 0
1.65 0.1 0
1.65 0.05 0
1.7 0.05 0
1.65 0.1 0
1.7 0.1 0
1.7 0.05 0
1.75 0.05 0
1.7 0.1 0
1.75 0.1 0
1.75 0.05 0
1.8 0.05 0
1.75 0.1 0
1.8 0.1 0
1.8 0.05 0
1.85 0.05 0
1.8 0.1 0
1.85 0.1 0
1.85 0.05 0
1.9 0.05 0
1.85 0.1 0
1.9 0.1 0
1.9 0.05 0
1.95 0.05 0
1.9 0.1 0
1.95 0.1 0
1.95 0.05 0
2 0.05 0
1.95 0.1 0
2 0.1 0
0.15 0.1 0
0.2 0.1 0
0.15 0.15 0
0.2 0.15 0
0.2 0.1 0
0.25 0.1 0
0.2 0.15 0
0.25 0.15 0
0.25 0.1 0
0.3 0.1 0
0.25 0.15 0
0.3 0.15 0
0.3 0.1 0
0.35 0.1 0
0.3 0.15 0
0.35 0.15 0
1.65 0.1 0
1.7 0.1 0
1.65 0.15 0
1.7 0.15 0
1.7 0.1 0
1.75 0.1 0
1.7 0.15 0
1.75 0.15 0
1.75 0.1 0
1.8 0.1 0
1.75 0.15 0
1.8 0.15 0
1.8 0.1 0
1.85 0.1 0
1.8 0.15 0
1.85 0.15 0
1.85 0.1 0
1.9 0.1 0
1.85 0.15 0
1.9 0.15 0
1.9 0.1 0
1.95 0.1 0
1.9 0.15 0
1.95 0.15 0
1.95 0.1 0
2 0.1 0
1.95 0.15 0
2 0.15 0
0.25 0.15 0
0.3 0.15 0
0.25 0.2 0
0.3 0.2 0
0.3 0.15 0
0.35 0.15 0
0.3 0.2 0
0.35 0.2 0
0.35 0.15 0
0.4 0.15 0
0.35 0.2 0
0.4 0.2 0
0.65 0.15 0
0.7 0.15 0
0.65 0.2 0
0.7 0.2 0
0.7 0.15 0
0.75 0.15 0
0.7 0.2 0
0.75 0.2 0
0.75 0.15 0
0.8 0.15 0
0.75 0.2 0
0.8 0.2 0
0.8 0.15 0
0.85 0.15 0
0.8 0.2 0
0.85 0.2 0
0.85 0.15 0
0.9 0.15 0
0.85 0.2 0
0.9 0.2 0
0.9 0.15 0
0.95 0.15 0
0.9 0.2 0
0.95 0.2 0
0.95 0.15 0
1 0.15 0
0.95 0.2 0
1 0.2 0
1 0.15 0
1.05 0.15 0
1 0.2 0
1.05 0.2 0
1.75 0.15 0
1.8 0.15 0
1.75 0.2 0
1.8 0.2 0
1.8 0.15 0
1.85 0.15 0
1.8 0.2 0
1.85 0.2 0
1.85 0.15 0
1.9 0.15 0
1.85 0.2 0
1.9 0.2 0
1.9 0.15 0
1.95 0.15 0
1.9 0.2 0
1.95 0.2 0
1.95 0.15 0
2 0.15 0
1.95 0.2 0
2 0.2 0
0.35 0.2 0
0.4 0.2 0
0.35 0.25 0
0.4 0.25 0
0.4 0.2 0
0.45 0.2 0
0.4 0.25 0
0.45 0.25 0
0.8 0.2 0
0.85 0.2 0
0.8 0.25 0
0.85 0.25 0
0.85 0.2 0
0.9 0.2 0
0.85 0.25 0
0.9 0.25 0
0.9 0.2 0
0.95 0.2 0
0.9 0.25 0
0.95 0.25 0
0.95 0.2 0
1 0.2 0
0.95 0.25 0
1 0.25 0
1.8 0.2 0
1.85 0.2 0
1.8 0.25 0
1.85 0.25 0
1.85 0.2 0
1.9 0.2 0
1.85 0.25 0
1.9 0.25 0
1.9 0.2 0
1.95 0.2 0
1.9 0.25 0
1.95 0.25 0
1.95 0.2 0
2 0.2 0
1.95 0.25 0
2 0.25 0
0 0.25 0
0.05 0.25 0
0 0.3 0
0.05 0.3 0
0.05 0.25 0
0.1 0.25 0
0.05 0.3 0
0.1 0.3 0
0.1 0.25 0
0.15 0.25 0
0.1 0.3 0
0.15 0.3 0
0.45 0.25 0
0.5 0.25 0
0.45 0.3 0
0.5 0.3 0
0.5 0.25 0
0.55 0.25 0
0.5 0.3 0
0.55 0.3 0
0.9 0.25 0
0.95 0.25 0
0.9 0.3 0
0.95 0.3 0
0.95 0.25 0
1 0.25 0
0.95 0.3 0
1 0.3 0
1.25 0.25 0
1.3 0.25 0
1.25 0.3 0
1.3 0.3 0
1.3 0.25 0
1.35 0.25 0
1.3 0.3 0
1.35 0.3 0
1.9 0.25 0
1.95 0.25 0
1.9 0.3 0
1.95 0.3 0
1.95 0.25 0
2 0.25 0
1.95 0.3 0
2 0.3 0
0 0.3 0
0.05 0.3 0
0 0.35 0
0.05 0.35 0
0.05 0.3 0
0.1 0.3 0
0.05 0.35 0
0.1 0.35 0
0.1 0.3 0
0.15 0.3 0
0.1 0.35 0
0.15 0.35 0
0.15 0.3 0
0.2 0.3 0
0.15 0.35 0
0.2 0.35 0
0.2 0.3 0
0.25 0.3 0
0.2 0.35 0
0.25 0.35 0
0.6 0.3 0
0.65 0.3 0
0.6 0.35 0
0.65 0.35 0
1.2 0.3 0
1.25 0.3 0
1.2 0.35 0
1.25 0.35 0
1.25 0.3 0
1.3 0.3 0
1.25 0.35 0
1.3 0.35 0
1.3 0.3 0
1.35 0.3 0
1.3 0.35 0
1.35 0.35 0
1.35 0.3 0
1.4 0.3 0
1.35 0.35 0
1.4 0.35 0
0 0.35 0
0.05 0.35 0
0 0.4 0
0.05 0.4 0
0.05 0.35 0
0.1 0.35 0
0.05 0.4 0
0.1 0.4 0
0.1 0.35 0
0.15 0.35 0
0.1 0.4 0
0.15 0.4 0
0.15 0.35 0
0.2 0.35 0
0.15 0.4 0
0.2 0.4 0
0.2 0.35 0
0.25 0.35 0
0.2 0.4 0
0.25 0.4 0
0.25 0.35 0
0.3 0.35 0
0.25 0.4 0
0.3 0.4 0
0.3 0.35 0
0.35 0.35 0
0.3 0.4 0
0.35 0.4 0
0.7 0.35 0
0.75 0.35 0
0.7 0.4 0
0.75 0.4 0
0.75 0.35 0
0.8 0.35 0
0.75 0.4 0
0.8 0.4 0
1.2 0.35 0
1.25 0.35 0
1.2 0.4 0
1.25 0.4 0
1.25 0.35 0
1.3 0.35 0
1.25 0.4 0
1.3 0.4 0
1.3 0.35 0
1.35 0.35 0
1.3 0.4 0
1.35 0.4 0
1.35 0.35 0
1.4 0.35 0
1.35 0.4 0
1.4 0.4 0
1.4 0.35 0
1.45 0.35 0
1.4 0.4 0
1.45 0.4 0
1.45 0.35 0
1.5 0.35 0
1.45 0.4 0
1.5 0.4 0
0 0.4 0
0.05 0.4 0
0 0.45 0
0.05 0.45 0
0.05 0.4 0
0.1 0.4 0
0.05 0.45 0
0.1 0.45 0
0.1 0.4 0
0.15 0.4 0
0.1 0.45 0
0.15 0.45 0
0.15 0.4 0
0.2 0.4 0
0.15 0.45 0
0.2 0.45 0
0.2 0.4 0
0.25 0.4 0
0.2 0.45 0
0.25 0.45 0
0.25 0.4 0
0.3 0.4 0
0.25 0.45 0
0.3 0.45 0
0.3 0.4 0
0.35 0.4 0
0.3 0.45 0
0.35 0.45 0
0.35 0.4 0
0.4 0.4 0
0.35 0.45 0
0.4 0.45 0
0.4 0.4 0
0.45 0.4 0
0.4 0.45 0
0.45 0.45 0
0.75 0.4 0
0.8 0.4 0
0.75 0.45 0
0.8 0.45 0
0.8 0.4 0
0.85 0.4 0
0.8 0.45 0
0.85 0.45 0
0.85 0.4 0
0.9 0.4 0
0.85 0.45 0
0.9 0.45 0
1.15 0.4 0
1.2 0.4 0
1.15 0.45 0
1.2 0.45 0
1.2 0.4 0
1.25 0.4 0
1.2 0.45 0
1.25 0.45 0
1.25 0.4 0
1.3 0.4 0
1.25 0.45 0
1.3 0.45 0
1.3 0.4 0
1.35 0.4 0
1.3 0.45 0
1.35 0.45 0
1.35 0.4 0
1.4 0.4 0
1.35 0.45 0
1.4 0.45 0
1.4 0.4 0
1.45 0.4 0
1.4 0.45 0
1.45 0.45 0
1.45 0.4 0
1.5 0.4 0
1.45 0.45 0
1.5 0.45 0
1.5 0.4 0
1.55 0.4 0
1.5 0.45 0
1.55 0.45 0
1.55 0.4 0
1.6 0.4 0
1.55 0.45 0
1.6 0.45 0
1.85 0.4 0
1.9 0.4 0
1.85 0.45 0
1.9 0.45 0
0 0.45 0
0.05 0.45 0
0 0.5 0
0.05 0.5 0
0.05 0.45 0
0.1 0.45 0
0.05 0.5 0
0.1 0.5 0
0.1 0.45 0
0.15 0.45 0
0.1 0.5 0
0.15 0.5 0
0.15 0.45 0
0.2 0.45 0
0.15 0.5 0
0.2 0.5 0
0.2 0.45 0
0.25 0.45 0
0.2 0.5 0
0.25 0.5 0
0.25 0.45 0
0.3 0.45 0
0.25 0.5 0
0.3 0.5 0
0.3 0.45 0
0.35 0.45 0
0.3 0.5 0
0.35 0.5 0
0.35 0.45 0
0.4 0.45 0
0.35 0.5 0
0.4 0.5 0
0.4 0.45 0
0.45 0.45 0
0.4 0.5 0
0.45 0.5 0
0.45 0.45 0
0.5 0.45 0
0.45 0.5 0
0.5 0.5 0
0.5 0.45 0
0.55 0.45 0
0.5 0.5 0
0.55 0.5 0
0.8 0.45 0
0.85 0.45 0
0.8 0.5 0
0.85 0.5 0
0.85 0.45 0
0.9 0.45 0
0.85 0.5 0
0.9 0.5 0
0.9 0.45 0
0.95 0.45 0
0.9 0.5 0
0.95 0.5 0
0.95 0.45 0
1 0.45 0
0.95 0.5 0
1 0.5 0
1.15 0.45 0
1.2 0.45 0
1.15 0.5 0
1.2 0.5 0
1.2 0.45 0
1.25 0.45 0
1.2 0.5 0
1.25 0.5 0
1.25 0.45 0
1.3 0.45 0
1.25 0.5 0
1.3 0.5 0
1.3 0.45 0
1.35 0.45 0
1.3 0.5 0
1.35 0.5 0
1.35 0.45 0
1.4 0.45 0
1.35 0.5 0
1.4 0.5 0
1.4 0.45 0
1.45 0.45 0
1.4 0.5 0
1.45 0.5 0
1.45 0.45 0
1.5 0.45 0
1.45 0.5 0
1.5 0.5 0
1.5 0.45 0
1.55 0.45 0
1.5 0.5 0
1.55 0.5 0
1.55 0.45 0
1.6 0.45 0
1.55 0.5 0
1.6 0.5 0
1.6 0.45 0
1.65 0.45 0
1.6 0.5 0
1.65 0.5 0
1.9 0.45 0
1.95 0.45 0
1.9 0.5 0
1.95 0.5 0
1.95 0.45 0
2 0.45 0
1.95 0.5 0
2 0.5 0
0 0.5 0
0.05 0.5 0
0 0.55 0
0.05 0.55 0
0.05 0.5 0
0.1 0.5 0
0.05 0.55 0
0.1 0.55 0
0.1 0.5 0
0.15 0.5 0
0.1 0.55 0
0.15 0.55 0
0.15 0.5 0
0.2 0.5 0
0.15 0.55 0
0.2 0.55 0
0.2 0.5 0
0.25 0.5 0
0.2 0.55 0
0.25 0.55 0
0.25 0.5 0
0.3 0.5 0
0.25 0.55 0
0.3 0.55 0
0.3 0.5 0
0.35 0.5 0
0.3 0.55 0
0.35 0.55 0
0.35 0.5 0
0.4 0.5 0
0.35 0.55 0
0.4 0.55 0
0.4 0.5 0
0.45 0.5 0
0.4 0.55 0
0.45 0.55 0
0.45 0.5 0
0.5 0.5 0
0.45 0.55 0
0.5 0.55 0
0.5 0.5 0
0.55 0.5 0
0.5 0.55 0
0.55 0.55 0
0.8 0.5 0
0.85 0.5 0
0.8 0.55 0
0.85 0.55 0
0.85 0.5 0
0.9 0.5 0
0.85 0.55 0
0.9 0.55 0
0.9 0.5 0
0.95 0.5 0
0.9 0.55 0
0.95 0.55 0
0.95 0.5 0
1 0.5 0
0.95 0.55 0
1 0.55 0
1.15 0.5 0
1.2 0.5 0
1.15 0.55 0
1.2 0.55 0
1.2 0.5 0
1.25 0.5 0
1.2 0.55 0
1.25 0.55 0
1.25 0.5 0
1.3 0.5 0
1.25 0.55 0
1.3 0.55 0
1.3 0.5 0
1.35 0.5 0
1.3 0.55 0
1.35 0.55 0
1.35 0.5 0
1.4 0.5 0
1.35 0.55 0
1.4 0.55 0
1.4 0.5 0
1.45 0.5 0
1.4 0.55 0
1.45 0.55 0
1.45 0.5 0
1.5 0.5 0
1.45 0.55 0
1.5 0.55 0
1.5 0.5 0
1.55 0.5 0
1.5 0.55 0
1.55 0.55 0
1.55 0.5 0
1.6 0.5 0
1.55 0.55 0
1.6 0.55 0
1.6 0.5 0
1.65 0.5 0
1.6 0.55 0
1.65 0.55 0
1.9 0.5 0
1.95 0.5 0
1.9 0.55 0
1.95 0.55 0
1.95 0.5 0
2 0.5 0
1.95 0.55 0
2 0.55 0
0 0.55 0
0.05 0.55 0
0 0.6 0
0.05 0.6 0
0.05 0.55 0
0.1 0.55 0
0.05 0.6 0
0.1 0.6 0
0.1 0.55 0
0.15 0.55 0
0.1 0.6 0
0.15 0.6 0
0.15 0.55 0
0.2 0.55 0
0.15 0.6 0
0.2 0.6 0
0.2 0.55 0
0.25 0.55 0
0.2 0.6 0
0.25 0.6 0
0.25 0.55 0
0.3 0.55 0
0.25 0.6 0
0.3 0.6 0
0.3 0.55 0
0.35 0.55 0
0.3 0.6 0
0.35 0.6 0
0.35 0.55 0
0.4 0.55 0
0.35 0.6 0
0.4 0.6 0
0.4 0.55 0
0.45 0.55 0
0.4 0.6 0
0.45 0.6 0
0.75 0.55 0
0.8 0.55 0
0.75 0.6 0
0.8 0.6 0
0.8 0.55 0
0.85 0.55 0
0.8 0.6 0
0.85 0.6 0
0.85 0.55 0
0.9 0.55 0
0.85 0.6 0
0.9 0.6 0
1.15 0.55 0
1.2 0.55 0
1.15 0.6 0
1.2 0.6 0
1.2 0.55 0
1.25 0.55 0
1.2 0.6 0
1.25 0.6 0
1.25 0.55 0
1.3 0.55 0
1.25 0.6 0
1.3 0.6 0
1.3 0.55 0
1.35 0.55 0
1.3 0.6 0
1.35 0.6 0
1.35 0.55 0
1.4 0.55 0
1.35 0.6 0
1.4 0.6 0
1.4 0.55 0
1.45 0.55 0
1.4 0.6 0
1.45 0.6 0
1.45 0.55 0
1.5 0.55 0
1.45 0.6 0
1.5 0.6 0
1.5 0.55 0
1.55 0.55 0
1.5 0.6 0
1.55 0.6 0
1.55 0.55 0
1.6 0.55 0
1.55 0.6 0
1.6 0.6 0
1.85 0.55 0
1.9 0.55 0
1.85 0.6 0
1.9 0.6 0
0 0.6 0
0.05 0.6 0
0 0.65 0
0.05 0.65 0
0.05 0.6 0
0.1 0.6 0
0.05 0.65 0
0.1 0.65 0
0.1 0.6 0
0.15 0.6 0
[...]
POINT_DATA 18152
SCALARS x_displacement double 1
LOOKUP_TABLE default
0 1.33229 0 0.779524 1.33229 2.34453 0.779524 1.60403 2.34453 3.19197 1.60403 2.33476 3.19197 3.92253 2.33476 2.98571 3.92253 4.56668 2.98571 3.57123 4.56668 5.15678 3.57123 4.10585 5.15678 5.72754 4.10585 4.60643 5.72754 6.30684 4.60643 5.0938 6.30684 6.90138 5.0938 5.58274 6.90138 7.50357 5.58274 6.07264 7.50357 8.095 6.07264 6.57338 8.095 8.66608 6.57338 7.08077 8.66608 9.22391 7.08077 7.60016 9.22391 9.77549 7.60016 8.13441 9.77549 10.3137 8.13441 8.68124 10.3137 10.8358 8.68124 9.24301 10.8358 11.3508 9.24301 9.81709 11.3508 11.8669 9.81709 10.3995 11.8669 12.3874 10.3995 10.987 12.3874 12.9203 10.987 11.5717 12.9203 13.4942 11.5717 12.1363 13.4942 14.1449 12.1363 12.6711 14.1449 14.8575 12.6711 13.1802 14.8575 15.5358 13.1802 13.6513 15.5358 16.0479 13.6513 14.0518 17.6731 17.6563 15.2181 15.6109 17.6563 18.1672 15.6109 15.8459 18.1672 18.4718 15.8459 16.1592 18.4718 18.7207 16.1592 16.4237 18.7207 18.902 16.4237 16.6431 18.902 19.0172 16.6431 16.778 19.0172 19.0673 16.778 16.8901 19.0673 19.0817 16.8901 16.9589 19.0817 19.0711 16.9589 16.9932 19.0711 19.0556 16.9932 17.0046 19.0556 19.0499 17.0046 17.0081 0 0.779524 0 0.53566 0.779524 1.60403 0.53566 1.09822 1.60403 2.33476 1.09822 1.66442 2.33476 2.98571 1.66442 2.19542 2.98571 3.57123 2.19542 2.68879 3.57123 4.10585 2.68879 3.13717 4.10585 4.60643 3.13717 3.53139 4.60643 5.0938 3.53139 3.89237 13.1802 13.6513 11.6204 11.9125 13.6513 14.0518 11.9125 12.1982 14.0518 14.3809 12.1982 12.4486 15.8459 16.1592 13.657 13.9914 16.1592 16.4237 13.9914 14.3349 16.4237 16.6431 14.3349 14.4335 16.6431 16.778 14.4335 14.6532 16.778 16.8901 14.6532 14.8074 16.8901 16.9589 14.8074 14.9108 16.9589 16.9932 14.9108 14.9662 16.9932 17.0046 14.9662 14.9869 17.0046 17.0081 14.9869 14.9921 1.66442 2.19542 1.07514 1.496 2.19542 2.68879 1.496 1.90095 2.68879 3.13717 1.90095 2.27597 3.13717 3.53139 2.27597 2.603 14.3349 14.4335 11.6668 12.4019 14.4335 14.6532 12.4019 12.6458 14.6532 14.8074 12.6458 12.8285 14.8074 14.9108 12.8285 12.9476 14.9108 14.9662 12.9476 13.0225 14.9662 14.9869 13.0225 13.0438 14.9869 14.9921 13.0438 13.0418 1.90095 2.27597 1.17573 1.50954 2.27597 2.603 1.50954 1.82665 2.603 2.87001 1.82665 2.14213 4.54154 4.70066 3.1928 3.22895 4.70066 5.26158 3.22895 3.35112 5.26158 5.87862 3.35112 4.04463 5.87862 6.62035 4.04463 4.79129 6.62035 7.26324 4.79129 5.68377 7.26324 7.84386 5.68377 7.11597 7.84386 9.63272 7.11597 8.09606 9.63272 9.80783 8.09606 8.55704 12.6458 12.8285 10.748 10.9027 12.8285 12.9476 10.9027 11.0946 12.9476 13.0225 11.0946 11.1822 13.0225 13.0438 11.1822 11.1989 13.0438 13.0418 11.1989 11.182 1.82665 2.14213 1.09765 1.41054 2.14213 2.44926 1.41054 1.72491 4.04463 4.79129 4.19697 4.57583 4.79129 5.68377 4.57583 5.76723 5.68377 7.11597 5.76723 5.60756 7.11597 8.09606 5.60756 6.52562 10.9027 11.0946 9.24838 9.34594 11.0946 11.1822 9.34594 9.4355 11.1822 11.1989 9.4355 9.46336 11.1989 11.182 9.46336 9.42363 0 -0.144051 0 -0.0437851 -0.144051 -0.469598 -0.0437851 -0.0386939 -0.469598 -0.165197 -0.0386939 -0.0622991 1.72491 2.0374 0.992664 1.30607 2.0374 2.35129 1.30607 1.61933 5.76723 5.60756 4.01836 4.95246 5.60756 6.52562 4.95246 5.53042 6.86035 6.90908 5.36765 5.42859 6.90908 6.82922 5.42859 5.49776 9.4355 9.46336 7.82266 7.82545 9.46336 9.42363 7.82545 7.72696 0 -0.0437851 0 0.010805 -0.0437851 -0.0386939 0.010805 0.000279305 -0.0386939 -0.0622991 0.000279305 -0.0210631 -0.0622991 -0.00682127 -0.0210631 -0.0431787 -0.00682127 -0.0303347 -0.0431787 -0.0274052 1.9355 2.25499 1.19391 1.50107 5.36564 5.36765 3.8837 3.95705 5.36765 5.42859 3.95705 4.04032 5.42859 5.49776 4.04032 4.13169 5.49776 5.60792 4.13169 4.1967 0 0.010805 0 0.00930873 0.010805 0.000279305 0.00930873 0.00561023 0.000279305 -0.0210631 0.00561023 -0.0129822 -0.0210631 -0.0431787 -0.0129822 -0.0307674 -0.0431787 -0.0274052 -0.0307674 -0.0466305 -0.0274052 -0.0127461 -0.0466305 -0.075354 -0.0127461 -0.021688 -0.075354 -0.158429 1.80186 2.10985 1.03649 1.29358 2.10985 2.43355 1.29358 1.55651 3.8837 3.95705 2.49971 2.60079 3.95705 4.04032 2.60079 2.67508 4.04032 4.13169 2.67508 2.7371 4.13169 4.1967 2.7371 2.77893 4.1967 4.26036 2.77893 2.81065 4.26036 4.742 2.81065 2.6619 0 0.00930873 0 0.00473625 0.00930873 0.00561023 0.00473625 0.00232136 0.00561023 -0.0129822 0.00232136 -0.00634111 -0.0129822 -0.0307674 -0.00634111 -0.0185762 -0.0307674 -0.0466305 -0.0185762 -0.0338064 -0.0466305 -0.075354 -0.0338064 -0.058375 -0.075354 -0.158429 -0.058375 -0.0854932 -0.158429 -0.213478 -0.0854932 -0.128902 -0.213478 -0.507452 -0.128902 -0.0794381 1.29358 1.55651 0.542143 0.731042 1.55651 1.80965 0.731042 0.881019 1.80965 2.03497 0.881019 0.990024 2.32833 2.49971 1.06628 1.20497 2.49971 2.60079 1.20497 1.28267 2.60079 2.67508 1.28267 1.32929 2.67508 2.7371 1.32929 1.36066 2.7371 2.77893 1.36066 1.3769 2.77893 2.81065 1.3769 1.35934 2.81065 2.6619 1.35934 1.37335 2.6619 2.74106 1.37335 1.36885 2.74106 2.69812 1.36885 1.3539 3.7944 4.05946 1.83421 2.03115 0 0.00473625 0 -2.58552e-10 0.00473625 0.00232136 -2.58552e-10 -4.93831e-10 0.00232136 -0.00634111 -4.93831e-10 -6.72733e-10 -0.00634111 -0.0185762 -6.72733e-10 -6.90947e-10 -0.0185762 -0.0338064 -6.90947e-10 -3.06454e-10 -0.0338064 -0.058375 -3.06454e-10 5.05093e-10 -0.058375 -0.0854932 5.05093e-10 1.58336e-09 -0.0854932 -0.128902 1.58336e-09 -2.32288e-09 -0.128902 -0.0794381 -2.32288e-09 -6.77984e-09 -0.0794381 -0.138876 -6.77984e-09 -9.40466e-09 -0.138876 -0.0877712 -9.40466e-09 -6.44002e-09 0.731042 0.881019 1.57717e-13 2.79755e-13 0.881019 0.990024 2.79755e-13 4.49753e-13 0.990024 1.04305 4.49753e-13 6.72234e-13 1.04305 1.02612 6.72234e-13 8.63957e-13 1.06628 1.20497 4.48012e-10 4.59353e-10 1.20497 1.28267 4.59353e-10 5.5319e-10 1.28267 1.32929 5.5319e-10 2.67466e-10 1.32929 1.36066 2.67466e-10 -3.83661e-10 1.36066 1.3769 -3.83661e-10 -2.08093e-09 1.3769 1.35934 -2.08093e-09 -2.89744e-09 1.35934 1.37335 -2.89744e-09 -4.33189e-09 1.37335 1.36885 -4.33189e-09 -3.48072e-09 1.36885 1.3539 -3.48072e-09 -2.71314e-09 1.3539 1.36006 -2.71314e-09 -1.77082e-09 2.03115 2.23767 -1.63084e-13 -6.1311e-13 2.23767 2.24296 -6.1311e-13 -6.62995e-13 0 -2.58552e-10 0 -0.00473625 -2.58552e-10 -4.93831e-10 -0.00473625 -0.00232136 -4.93831e-10 -6.72733e-10 -0.00232136 0.00634111 -6.72733e-10 -6.90947e-10 0.00634111 0.0185762 -6.90947e-10 -3.06454e-10 0.0185762 0.0338064 -3.06454e-10 5.05093e-10 0.0338064 0.058375 5.05093e-10 1.58336e-09 0.058375 0.0854932 1.58336e-09 -2.32288e-09 0.0854932 0.128902 -2.32288e-09 -6.77984e-09 0.128902 0.0794381 -6.77984e-09 -9.40466e-09 0.0794381 0.138876 -9.40466e-09 -6.44002e-09 0.138876 0.0877712 1.57717e-13 2.79755e-13 -0.731042 -0.881019 2.79755e-13 4.49753e-13 -0.881019 -0.990024 4.49753e-13 6.72234e-13 -0.990024 -1.04305 6.72234e-13 8.63957e-13 -1.04305 -1.02612 4.48012e-10 4.59353e-10 -1.06628 -1.20497 4.59353e-10 5.5319e-10 -1.20497 -1.28267 5.5319e-10 2.67466e-10 -1.28267 -1.32929 2.67466e-10 -3.83661e-10 -1.32929 -1.36066 -3.83661e-10 -2.08093e-09 -1.36066 -1.3769 -2.08093e-09 -2.89744e-09 -1.3769 -1.35934 -2.89744e-09 -4.33189e-09 -1.35934 -1.37335 -4.33189e-09 -3.48072e-09 -1.37335 -1.36885 -3.48072e-09 -2.71314e-09 -1.36885 -1.3539 -2.71314e-09 -1.77082e-09 -1.3539 -1.36006 -1.63084e-13 -6.1311e-13 -2.03115 -2.23767 -6.1311e-13 -6.62995e-13 -2.23767 -2.24296 0 -0.00473625 0 -0.00930873 -0.00473625 -0.00232136 -0.00930873 -0.00561023 -0.00232136 0.00634111 -0.00561023 0.0129822 0.00634111 0.0185762 0.0129822 0.0307674 0.0185762 0.0338064 0.0307674 0.0466305 0.0338064 0.058375 0.0466305 0.075354 0.058375 0.0854932 0.075354 0.158429 0.0854932 0.128902 0.158429 0.213478 0.128902 0.0794381 0.213478 0.507452 -0.542143 -0.731042 -1.29358 -1.55651 -0.731042 -0.881019 -1.55651 -1.80965 -0.881019 -0.990024 -1.80965 -2.03497 -1.06628 -1.20497 -2.32833 -2.49971 -1.20497 -1.28267 -2.49971 -2.60079 -1.28267 -1.32929 -2.60079 -2.67508 -1.32929 -1.36066 -2.67508 -2.7371 -1.36066 -1.3769 -2.7371 -2.77893 -1.3769 -1.35934 -2.77893 -2.81065 -1.35934 -1.37335 -2.81065 -2.6619 -1.37335 -1.36885 -2.6619 -2.74106 -1.36885 -1.3539 -2.74106 -2.69812 -1.83421 -2.03115 -3.7944 -4.05946 0 -0.00930873 0 -0.010805 -0.00930873 -0.00561023 -0.010805 -0.000279306 -0.00561023 0.0129822 -0.000279306 0.0210631 0.0129822 0.0307674 0.0210631 0.0431787 0.0307674 0.0466305 0.0431787 0.0274052 0.0466305 0.075354 0.0274052 0.0127461 0.075354 0.158429 0.0127461 0.021688 -1.03649 -1.29358 -1.80186 -2.10985 -1.29358 -1.55651 -2.10985 -2.43355 -2.49971 -2.60079 -3.8837 -3.95705 -2.60079 -2.67508 -3.95705 -4.04032 -2.67508 -2.7371 -4.04032 -4.13169 -2.7371 -2.77893 -4.13169 -4.1967 -2.77893 -2.81065 -4.1967 -4.26036 -2.81065 -2.6619 -4.26036 -4.742 0 -0.010805 0 0.0437851 -0.010805 -0.000279306 0.0437851 0.0386939 -0.000279306 0.0210631 0.0386939 0.0622991 0.0210631 0.0431787 0.0622991 0.00682126 0.0431787 0.0274052 0.00682126 0.0303347 -1.19391 -1.50107 -1.9355 -2.25499 -3.8837 -3.95705 -5.36564 -5.36765 -3.95705 -4.04032 -5.36765 -5.42859 -4.04032 -4.13169 -5.42859 -5.49776 -4.13169 -4.1967 -5.49776 -5.60792 0 0.0437851 0 0.144051 0.0437851 0.0386939 0.144051 0.469598 0.0386939 0.0622991 0.469598 0.165197 -0.992664 -1.30607 -1.72491 -2.0374 -1.30607 -1.61933 -2.0374 -2.35129 -4.01836 -4.95246 -5.76723 -5.60756 -4.95246 -5.53042 -5.60756 -6.52562 -5.36765 -5.42859 -6.86035 -6.90908 -5.42859 -5.49776 -6.90908 -6.82922 -7.82266 -7.82545 -9.4355 -9.46336 -7.82545 -7.72696 -9.46336 -9.42363 -1.09765 -1.41054 -1.82665 -2.14213 -1.41054 -1.72491 -2.14213 -2.44926 -4.19697 -4.57583 -4.04463 -4.79129 -4.57583 -5.76723 -4.79129 -5.68377 -5.76723 -5.60756 -5.68377 -7.11597 -5.60756 -6.52562 -7.11597 -8.09606 -9.24838 -9.34594 -10.9027 -11.0946 -9.34594 -9.4355 -11.0946 -11.1822 -9.4355 -9.46336 -11.1822 -11.1989 -9.46336 -9.42363 -11.1989 -11.182 -1.17573 -1.50954 -1.90095 -2.27597 -1.50954 -1.82665 -2.27597 -2.603 -1.82665 -2.14213 -2.603 -2.87001 -3.1928 -3.22895 -4.54154 -4.70066 -3.22895 -3.35112 -4.70066 -5.26158 -3.35112 -4.04463 -5.26158 -5.87862 -4.04463 -4.79129 -5.87862 -6.62035 -4.79129 -5.68377 -6.62035 -7.26324 -5.68377 -7.11597 -7.26324 -7.84386 -7.11597 -8.09606 -7.84386 -9.63272 -8.09606 -8.55704 -9.63272 -9.80783 -10.748 -10.9027 -12.6458 -12.8285 -10.9027 -11.0946 -12.8285 -12.9476 -11.0946 -11.1822 -12.9476 -13.0225 -11.1822 -11.1989 -13.0225 -13.0438 -11.1989 -11.182 -13.0438 -13.0418 -1.07514 -1.496 -1.66442 -2.19542 -1.496 -1.90095 -2.19542 -2.68879 -1.90095 -2.27597 -2.68879 -3.13717 -2.27597 -2.603 -3.13717 -3.53139 -11.6668 -12.4019 -14.3349 -14.4335 -12.4019 -12.6458 -14.4335 -14.6532 -12.6458 -12.8285 -14.6532 -14.8074 -12.8285 -12.9476 -14.8074 -14.9108 -12.9476 -13.0225 -14.9108 -14.9662 -13.0225 -13.0438 -14.9662 -14.9869 -13.0438 -13.0418 -14.9869 -14.9921 0 -0.53566 0 -0.779524 -0.53566 -1.09822 -0.779524 -1.60403 -1.09822 -1.66442 -1.60403 -2.33476 -1.66442 -2.19542 -2.33476 -2.98571 -2.19542 -2.68879 -2.98571 -3.57123 -2.68879 -3.13717 -3.57123 -4.10585 -3.13717 -3.53139 -4.10585 -4.60643 -3.53139 -3.89237 -4.60643 -5.0938 -11.6204 -11.9125 -13.1802 -13.6513 -11.9125 -12.1982 -13.6513 -14.0518 -12.1982 -12.4486 -14.0518 -14.3809 -13.657 -13.9914 -15.8459 -16.1592 -13.9914 -14.3349 -16.1592 -16.4237 -14.3349 -14.4335 -16.4237 -16.6431 -14.4335 -14.6532 -16.6431 -16.778 -14.6532 -14.8074 -16.778 -16.8901 -14.8074 -14.9108 -16.8901 -16.9589 -14.9108 -14.9662 -16.9589 -16.9932 -14.9662 -14.9869 -16.9932 -17.0046 -14.9869 -14.9921 -17.0046 -17.0081 0 -0.779524 0 -1.33229 -0.779524 -1.60403 -1.33229 -2.34453 -1.60403 -2.33476 -2.34453 -3.19197 -2.33476 -2.98571 -3.19197 -3.92253 -2.98571 -3.57123 -3.92253 -4.56668 -3.57123 -4.10585 -4.56668 -5.15678 -4.10585 -4.60643 -5.15678 -5.72754 -4.60643 -5.0938 -5.72754 -6.30684 -5.0938 -5.58274 -6.30684 -6.90138 -5.58274 -6.07264 -6.90138 -7.50357 -6.07264 -6.57338 -7.50357 -8.095 -6.57338 -7.08077 -8.095 -8.66608 -7.08077 -7.60016 -8.66608 -9.22391 -7.60016 -8.13441 -9.22391 -9.77549 -8.13441 -8.68124 -9.77549 -10.3137 -8.68124 -9.24301 -10.3137 -10.8358 -9.24301 -9.81709 -10.8358 -11.3508 -9.81709 -10.3995 -11.3508 -11.8669 -10.3995 -10.987 -11.8669 -12.3874 -10.987 -11.5717 -12.3874 -12.9203 -11.5717 -12.1363 -12.9203 -13.4942 -12.1363 -12.6711 -13.4942 -14.1449 -12.6711 -13.1802 -14.1449 -14.8575 -13.1802 -13.6513 -14.8575 -15.5358 -13.6513 -14.0518 -15.5358 -16.0479 -15.2181 -15.6109 -17.6731 -17.6563 -15.6109 -15.8459 -17.6563 -18.1672 -15.8459 -16.1592 -18.1672 -18.4718 -16.1592 -16.4237 -18.4718 -18.7207 -16.4237 -16.6431 -18.7207 -18.902 -16.6431 -16.778 -18.902 -19.0172 -16.778 -16.8901 -19.0172 -19.0673 -16.8901 -16.9589 -19.0673 -19.0817 -16.9589 -16.9932 -19.0817 -19.0711 -16.9932 -17.0046 -19.0711 -19.0556 -17.0046 -17.0081 -19.0556 -19.0499 17.0643 16.2333 15.5695 15.8459 5.58274 5.82769 4.92144 5.13527 5.82769 6.07264 5.13527 5.35231 4.92144 5.13527 4.25636 4.44221 5.13527 5.35231 4.44221 4.62707 6.07264 6.32301 5.35231 5.5751 6.32301 6.57338 5.5751 5.8067 5.35231 5.5751 4.62707 4.81089 5.5751 5.8067 4.81089 5.00773 6.57338 6.82708 5.8067 6.04046 6.82708 7.08077 6.04046 6.28322 7.08077 7.34047 6.28322 6.53168 7.34047 7.60016 6.53168 6.78518 7.60016 7.86728 6.78518 7.04187 7.86728 8.13441 7.04187 7.30535 8.13441 8.40782 7.30535 7.57515 8.40782 8.68124 7.57515 7.85594 8.68124 8.96212 7.85594 8.14417 8.96212 9.24301 8.14417 8.44059 9.24301 9.53005 8.44059 8.74136 9.53005 9.81709 8.74136 9.04624 9.81709 10.1083 9.04624 9.35277 10.1083 10.3995 9.35277 9.66144 10.3995 10.6932 9.66144 9.97122 10.6932 10.987 9.97122 10.2821 10.987 11.2793 10.2821 10.593 11.2793 11.5717 10.593 10.8993 11.5717 11.854 10.8993 11.1969 11.854 12.1363 11.1969 11.4728 12.1363 12.4037 11.4728 11.7281 12.4037 12.6711 11.7281 11.9523 13.6677 13.7847 12.6932 12.8178 15.2181 15.4145 14.1918 14.1381 15.4145 15.6109 14.1381 14.4676 0 0.26783 0 0.201845 0.26783 0.53566 0.201845 0.418992 0.53566 0.816941 0.418992 0.648048 0.816941 1.09822 0.648048 0.886419 0.418992 0.648048 0.290471 0.484373 0.648048 0.886419 0.484373 0.666483 5.18275 5.37685 4.54154 4.6211 5.37685 5.60098 4.6211 4.70066 5.60098 5.86121 4.70066 4.98112 5.86121 6.15271 4.98112 5.26158 6.15271 6.44248 5.26158 5.5701 6.44248 6.78659 5.5701 5.87862 6.78659 7.13021 5.87862 6.24948 7.13021 7.46597 6.24948 6.62035 7.46597 7.80127 6.62035 6.9418 7.80127 8.13055 6.9418 7.26324 8.13055 8.46064 7.26324 7.55355 8.46064 8.78101 7.55355 7.84386 8.78101 9.17838 7.84386 8.73829 9.17838 9.78649 8.73829 9.63272 9.78649 10.1503 9.63272 9.72027 10.1503 10.3084 9.72027 9.80783 10.3084 10.4837 9.80783 9.6102 11.4714 11.6204 10.8155 10.8822 12.1982 12.3234 11.2332 11.3391 12.3234 12.4486 11.3391 11.4562 13.657 13.8242 12.6662 12.8997 13.8242 13.9914 12.8997 13.1624 12.8997 13.1624 11.9395 11.8689 0 0.179101 0 -0.199014 0.866667 1.07514 0.602186 0.787192 1.07514 1.28557 0.787192 0.971649 1.28557 1.496 0.971649 1.16118 3.58208 3.7987 3.22769 3.17423 3.7987 3.72147 3.17423 3.40364 3.72147 3.96215 3.40364 3.81289 9.80783 9.6102 9.18243 9.28045 9.18243 9.28045 8.55704 8.52486 10.0832 10.1114 9.29833 9.31036 9.29833 9.31036 8.51021 8.51783 10.7252 10.8616 9.74343 9.88275 10.8616 10.9955 9.88275 10.0191 10.5609 10.6922 9.59408 9.72808 10.6922 10.8305 9.72808 9.85966 12.5166 11.6668 11.0426 11.3725 0.119298 0.320237 -0.469598 -0.317398 0.320237 0.269295 -0.317398 -0.165197 1.17573 1.34264 0.831428 0.988713 1.34264 1.50954 0.988713 1.14546 2.40078 2.55502 2.0374 2.19434 2.55502 2.70959 2.19434 2.35129 3.1928 3.21088 3.14591 3.54371 3.21088 3.22895 3.54371 3.70591 7.68027 7.65935 6.8978 6.86035 7.56798 7.93093 6.90908 6.86915 7.93093 7.94983 6.86915 6.82922 9.18467 9.32328 8.21865 8.35357 9.16841 9.29664 8.21442 8.35055 10.6943 10.748 9.77196 10.092 -0.0413569 0.292941 -0.00682127 -0.018578 0.292941 0.336987 -0.018578 -0.0303347 1.09765 1.2541 0.739901 0.891472 1.2541 1.41054 0.891472 1.04469 2.30467 2.4665 1.9355 2.09525 2.4665 2.63173 2.09525 2.25499 4.03293 4.19697 3.35368 3.30996 4.19697 4.3864 3.30996 3.75053 4.3864 4.57583 3.75053 4.19808 6.52562 6.93878 6.02802 6.24335 6.02802 6.24335 5.53042 5.54062 6.96399 6.97295 6.2077 6.21149 6.2077 6.21149 5.45364 5.46623 6.0912 6.43659 5.60792 5.63833 7.8043 7.94177 6.85193 6.98698 7.80194 7.9319 6.85228 6.99285 9.24838 9.29716 8.22288 8.22889 9.29716 9.34594 8.22889 8.53131 -0.0578777 0.102052 -0.0127461 -0.017217 0.102052 0.221393 -0.017217 -0.021688 0.992664 1.14937 0.623657 0.778648 1.14937 1.30607 0.778648 0.930322 2.58074 2.73994 2.19128 2.35578 2.73994 2.92683 2.35578 2.52717 2.19128 2.35578 1.80186 1.95585 2.35578 2.52717 1.95585 2.10985 2.52717 2.69145 2.10985 2.2717 2.69145 2.8694 2.2717 2.43355 4.01836 4.48541 3.5739 3.44594 4.48541 4.95246 3.44594 4.10949 5.36562 5.36564 4.52875 4.62467 4.52875 4.62467 3.88331 3.8837 4.69732 5.05524 4.742 3.46311 6.31089 6.44504 5.35111 5.49522 6.44504 6.58013 5.49522 5.62982 6.17653 6.31153 5.21759 5.34944 6.31153 6.45021 5.34944 5.48546 7.82266 7.82406 6.86294 6.9111 7.82406 7.82545 6.9111 7.03361 0.231642 0.130916 -0.521621 -0.14683 -0.521621 -0.14683 -0.213478 -0.360465 -0.14683 0.192123 -0.360465 -0.507452 0.192123 0.130301 -0.507452 -0.28782 1.03493 1.19391 0.670641 0.823192 2.76184 2.93071 2.28576 2.43289 2.28576 2.43289 1.80965 1.92231 2.43289 2.57137 1.92231 2.03497 2.57137 2.71359 2.03497 2.14209 3.94073 3.94521 3.17914 3.18164 3.17914 3.18164 2.41681 2.43471 4.32049 4.24681 3.05192 3.32667 3.05192 3.32667 2.74106 2.71959 3.32667 3.59395 2.71959 2.69812 4.78544 4.92306 3.7944 3.92693 4.92306 5.06276 3.92693 4.05946 6.29175 6.2136 5.34876 5.36694 -0.275924 0.147061 -0.0877712 -0.438704 0.902626 1.03649 0.551858 0.674133 2.34559 2.32833 1.55901 1.6973 1.55901 1.6973 1.00397 1.06628 1.89428 2.11084 1.36006 1.35235 3.42726 3.54717 2.48286 2.59223 3.24154 3.30689 2.23767 2.24031 3.30689 3.32247 2.24031 2.24296 -0.313908 0.0379401 -6.87167e-11 -2.25124e-13 0.0379401 0.0500895 -2.25124e-13 -3.09301e-13 1.02612 1.02223 0.51306 0.465438 0.51306 0.465438 8.63957e-13 8.68902e-13 0.53486 0.664148 4.6336e-11 2.00238e-11 1.7428 1.83421 0.819414 0.89137 -6.87167e-11 -2.25124e-13 0.313908 -0.0379401 -2.25124e-13 -3.09301e-13 -0.0379401 -0.0500895 8.63957e-13 8.68902e-13 -0.51306 -0.465438 -0.51306 -0.465438 -1.02612 -1.02223 4.6336e-11 2.00238e-11 -0.53486 -0.664148 -0.819414 -0.89137 -1.7428 -1.83421 0.0877712 0.438704 0.275924 -0.147061 -0.551858 -0.674133 -0.902626 -1.03649 -1.00397 -1.06628 -1.55901 -1.6973 -1.55901 -1.6973 -2.34559 -2.32833 -1.36006 -1.35235 -1.89428 -2.11084 -2.48286 -2.59223 -3.42726 -3.54717 -2.23767 -2.24031 -3.24154 -3.30689 -2.24031 -2.24296 -3.30689 -3.32247 0.213478 0.360465 0.52162 0.14683 0.360465 0.507452 0.14683 -0.192123 0.52162 0.14683 -0.231642 -0.130916 0.507452 0.28782 -0.192123 -0.130301 -0.670641 -0.823192 -1.03493 -1.19391 -1.80965 -1.92231 -2.28576 -2.43289 -1.92231 -2.03497 -2.43289 -2.57137 -2.28576 -2.43289 -2.76184 -2.93071 -2.03497 -2.14209 -2.57137 -2.71359 -2.41681 -2.43471 -3.17914 -3.18164 -3.17914 -3.18164 -3.94073 -3.94521 -2.74106 -2.71959 -3.05192 -3.32667 -2.71959 -2.69812 -3.32667 -3.59395 -3.05192 -3.32667 -4.32049 -4.24681 -3.7944 -3.92693 -4.78544 -4.92306 -3.92693 -4.05946 -4.92306 -5.06276 -5.34876 -5.36694 -6.29175 -6.2136 0.0127461 0.017217 0.0578777 -0.102052 0.017217 0.021688 -0.102052 -0.221393 -0.623657 -0.778648 -0.992664 -1.14937 -0.778648 -0.930322 -1.14937 -1.30607 -1.80186 -1.95585 -2.19128 -2.35578 -1.95585 -2.10985 -2.35578 -2.52717 -2.19128 -2.35578 -2.58074 -2.73994 -2.35578 -2.52717 -2.73994 -2.92683 -2.10985 -2.2717 -2.52717 -2.69145 -2.2717 -2.43355 -2.69145 -2.8694 -3.5739 -3.44594 -4.01836 -4.48541 -3.44594 -4.10949 -4.48541 -4.95246 -3.88331 -3.8837 -4.52875 -4.62467 -4.52875 -4.62467 -5.36562 -5.36564 -4.742 -3.46311 -4.69732 -5.05524 -5.35111 -5.49522 -6.31089 -6.44504 -5.49522 -5.62982 -6.44504 -6.58013 -5.21759 -5.34944 -6.17653 -6.31153 -5.34944 -5.48546 -6.31153 -6.45021 -6.86294 -6.9111 -7.82266 -7.82406 -6.9111 -7.03361 -7.82406 -7.82545 0.00682126 0.01