# vtk DataFile Version 3.0
#This file was generated by the deal.II library on 2016/2/10 at 17:07:30
ASCII
DATASET UNSTRUCTURED_GRID

POINTS 18152 double
0 0 0
0.05 0 0
0 0.05 0
0.05 0.05 0
0.05 0 0
0.1 0 0
0.05 0.05 0
0.1 0.05 0
0.1 0 0
0.15 0 0
0.1 0.05 0
0.15 0.05 0
0.15 0 0
0.2 0 0
0.15 0.05 0
0.2 0.05 0
0.2 0 0
0.25 0 0
0.2 0.05 0
0.25 0.05 0
0.25 0 0
0.3 0 0
0.25 0.05 0
0.3 0.05 0
0.3 0 0
0.35 0 0
0.3 0.05 0
0.35 0.05 0
0.35 0 0
0.4 0 0
0.35 0.05 0
0.4 0.05 0
0.4 0 0
0.45 0 0
0.4 0.05 0
0.45 0.05 0
0.45 0 0
0.5 0 0
0.45 0.05 0
0.5 0.05 0
0.5 0 0
0.55 0 0
0.5 0.05 0
0.55 0.05 0
0.55 0 0
0.6 0 0
0.55 0.05 0
0.6 0.05 0
0.6 0 0
0.65 0 0
0.6 0.05 0
0.65 0.05 0
0.65 0 0
0.7 0 0
0.65 0.05 0
0.7 0.05 0
0.7 0 0
0.75 0 0
0.7 0.05 0
0.75 0.05 0
0.75 0 0
0.8 0 0
0.75 0.05 0
0.8 0.05 0
0.8 0 0
0.85 0 0
0.8 0.05 0
0.85 0.05 0
0.85 0 0
0.9 0 0
0.85 0.05 0
0.9 0.05 0
0.9 0 0
0.95 0 0
0.9 0.05 0
0.95 0.05 0
0.95 0 0
1 0 0
0.95 0.05 0
1 0.05 0
1 0 0
1.05 0 0
1 0.05 0
1.05 0.05 0
1.05 0 0
1.1 0 0
1.05 0.05 0
1.1 0.05 0
1.1 0 0
1.15 0 0
1.1 0.05 0
1.15 0.05 0
1.15 0 0
1.2 0 0
1.15 0.05 0
1.2 0.05 0
1.2 0 0
1.25 0 0
1.2 0.05 0
1.25 0.05 0
1.45 0 0
1.5 0 0
1.45 0.05 0
1.5 0.05 0
1.5 0 0
1.55 0 0
1.5 0.05 0
1.55 0.05 0
1.55 0 0
1.6 0 0
1.55 0.05 0
1.6 0.05 0
1.6 0 0
1.65 0 0
1.6 0.05 0
1.65 0.05 0
1.65 0 0
1.7 0 0
1.65 0.05 0
1.7 0.05 0
1.7 0 0
1.75 0 0
1.7 0.05 0
1.75 0.05 0
1.75 0 0
1.8 0 0
1.75 0.05 0
1.8 0.05 0
1.8 0 0
1.85 0 0
1.8 0.05 0
1.85 0.05 0
1.85 0 0
1.9 0 0
1.85 0.05 0
1.9 0.05 0
1.9 0 0
1.95 0 0
1.9 0.05 0
1.95 0.05 0
1.95 0 0
2 0 0
1.95 0.05 0
2 0.05 0
0 0.05 0
0.05 0.05 0
0 0.1 0
0.05 0.1 0
0.05 0.05 0
0.1 0.05 0
0.05 0.1 0
0.1 0.1 0
0.1 0.05 0
0.15 0.05 0
0.1 0.1 0
0.15 0.1 0
0.15 0.05 0
0.2 0.05 0
0.15 0.1 0
0.2 0.1 0
0.2 0.05 0
0.25 0.05 0
0.2 0.1 0
0.25 0.1 0
0.25 0.05 0
0.3 0.05 0
0.25 0.1 0
0.3 0.1 0
0.3 0.05 0
0.35 0.05 0
0.3 0.1 0
0.35 0.1 0
0.35 0.05 0
0.4 0.05 0
0.35 0.1 0
0.4 0.1 0
1.15 0.05 0
1.2 0.05 0
1.15 0.1 0
1.2 0.1 0
1.2 0.05 0
1.25 0.05 0
1.2 0.1 0
1.25 0.1 0
1.25 0.05 0
1.3 0.05 0
1.25 0.1 0
1.3 0.1 0
1.55 0.05 0
1.6 0.05 0
1.55 0.1 0
1.6 0.1 0
1.6 0.05 0
1.65 0.05 0
1.6 0.1 0
1.65 0.1 0
1.65 0.05 0
1.7 0.05 0
1.65 0.1 0
1.7 0.1 0
1.7 0.05 0
1.75 0.05 0
1.7 0.1 0
1.75 0.1 0
1.75 0.05 0
1.8 0.05 0
1.75 0.1 0
1.8 0.1 0
1.8 0.05 0
1.85 0.05 0
1.8 0.1 0
1.85 0.1 0
1.85 0.05 0
1.9 0.05 0
1.85 0.1 0
1.9 0.1 0
1.9 0.05 0
1.95 0.05 0
1.9 0.1 0
1.95 0.1 0
1.95 0.05 0
2 0.05 0
1.95 0.1 0
2 0.1 0
0.15 0.1 0
0.2 0.1 0
0.15 0.15 0
0.2 0.15 0
0.2 0.1 0
0.25 0.1 0
0.2 0.15 0
0.25 0.15 0
0.25 0.1 0
0.3 0.1 0
0.25 0.15 0
0.3 0.15 0
0.3 0.1 0
0.35 0.1 0
0.3 0.15 0
0.35 0.15 0
1.65 0.1 0
1.7 0.1 0
1.65 0.15 0
1.7 0.15 0
1.7 0.1 0
1.75 0.1 0
1.7 0.15 0
1.75 0.15 0
1.75 0.1 0
1.8 0.1 0
1.75 0.15 0
1.8 0.15 0
1.8 0.1 0
1.85 0.1 0
1.8 0.15 0
1.85 0.15 0
1.85 0.1 0
1.9 0.1 0
1.85 0.15 0
1.9 0.15 0
1.9 0.1 0
1.95 0.1 0
1.9 0.15 0
1.95 0.15 0
1.95 0.1 0
2 0.1 0
1.95 0.15 0
2 0.15 0
0.25 0.15 0
0.3 0.15 0
0.25 0.2 0
0.3 0.2 0
0.3 0.15 0
0.35 0.15 0
0.3 0.2 0
0.35 0.2 0
0.35 0.15 0
0.4 0.15 0
0.35 0.2 0
0.4 0.2 0
0.65 0.15 0
0.7 0.15 0
0.65 0.2 0
0.7 0.2 0
0.7 0.15 0
0.75 0.15 0
0.7 0.2 0
0.75 0.2 0
0.75 0.15 0
0.8 0.15 0
0.75 0.2 0
0.8 0.2 0
0.8 0.15 0
0.85 0.15 0
0.8 0.2 0
0.85 0.2 0
0.85 0.15 0
0.9 0.15 0
0.85 0.2 0
0.9 0.2 0
0.9 0.15 0
0.95 0.15 0
0.9 0.2 0
0.95 0.2 0
0.95 0.15 0
1 0.15 0
0.95 0.2 0
1 0.2 0
1 0.15 0
1.05 0.15 0
1 0.2 0
1.05 0.2 0
1.75 0.15 0
1.8 0.15 0
1.75 0.2 0
1.8 0.2 0
1.8 0.15 0
1.85 0.15 0
1.8 0.2 0
1.85 0.2 0
1.85 0.15 0
1.9 0.15 0
1.85 0.2 0
1.9 0.2 0
1.9 0.15 0
1.95 0.15 0
1.9 0.2 0
1.95 0.2 0
1.95 0.15 0
2 0.15 0
1.95 0.2 0
2 0.2 0
0.35 0.2 0
0.4 0.2 0
0.35 0.25 0
0.4 0.25 0
0.4 0.2 0
0.45 0.2 0
0.4 0.25 0
0.45 0.25 0
0.8 0.2 0
0.85 0.2 0
0.8 0.25 0
0.85 0.25 0
0.85 0.2 0
0.9 0.2 0
0.85 0.25 0
0.9 0.25 0
0.9 0.2 0
0.95 0.2 0
0.9 0.25 0
0.95 0.25 0
0.95 0.2 0
1 0.2 0
0.95 0.25 0
1 0.25 0
1.8 0.2 0
1.85 0.2 0
1.8 0.25 0
1.85 0.25 0
1.85 0.2 0
1.9 0.2 0
1.85 0.25 0
1.9 0.25 0
1.9 0.2 0
1.95 0.2 0
1.9 0.25 0
1.95 0.25 0
1.95 0.2 0
2 0.2 0
1.95 0.25 0
2 0.25 0
0 0.25 0
0.05 0.25 0
0 0.3 0
0.05 0.3 0
0.05 0.25 0
0.1 0.25 0
0.05 0.3 0
0.1 0.3 0
0.1 0.25 0
0.15 0.25 0
0.1 0.3 0
0.15 0.3 0
0.45 0.25 0
0.5 0.25 0
0.45 0.3 0
0.5 0.3 0
0.5 0.25 0
0.55 0.25 0
0.5 0.3 0
0.55 0.3 0
0.9 0.25 0
0.95 0.25 0
0.9 0.3 0
0.95 0.3 0
0.95 0.25 0
1 0.25 0
0.95 0.3 0
1 0.3 0
1.25 0.25 0
1.3 0.25 0
1.25 0.3 0
1.3 0.3 0
1.3 0.25 0
1.35 0.25 0
1.3 0.3 0
1.35 0.3 0
1.9 0.25 0
1.95 0.25 0
1.9 0.3 0
1.95 0.3 0
1.95 0.25 0
2 0.25 0
1.95 0.3 0
2 0.3 0
0 0.3 0
0.05 0.3 0
0 0.35 0
0.05 0.35 0
0.05 0.3 0
0.1 0.3 0
0.05 0.35 0
0.1 0.35 0
0.1 0.3 0
0.15 0.3 0
0.1 0.35 0
0.15 0.35 0
0.15 0.3 0
0.2 0.3 0
0.15 0.35 0
0.2 0.35 0
0.2 0.3 0
0.25 0.3 0
0.2 0.35 0
0.25 0.35 0
0.6 0.3 0
0.65 0.3 0
0.6 0.35 0
0.65 0.35 0
1.2 0.3 0
1.25 0.3 0
1.2 0.35 0
1.25 0.35 0
1.25 0.3 0
1.3 0.3 0
1.25 0.35 0
1.3 0.35 0
1.3 0.3 0
1.35 0.3 0
1.3 0.35 0
1.35 0.35 0
1.35 0.3 0
1.4 0.3 0
1.35 0.35 0
1.4 0.35 0
0 0.35 0
0.05 0.35 0
0 0.4 0
0.05 0.4 0
0.05 0.35 0
0.1 0.35 0
0.05 0.4 0
0.1 0.4 0
0.1 0.35 0
0.15 0.35 0
0.1 0.4 0
0.15 0.4 0
0.15 0.35 0
0.2 0.35 0
0.15 0.4 0
0.2 0.4 0
0.2 0.35 0
0.25 0.35 0
0.2 0.4 0
0.25 0.4 0
0.25 0.35 0
0.3 0.35 0
0.25 0.4 0
0.3 0.4 0
0.3 0.35 0
0.35 0.35 0
0.3 0.4 0
0.35 0.4 0
0.7 0.35 0
0.75 0.35 0
0.7 0.4 0
0.75 0.4 0
0.75 0.35 0
0.8 0.35 0
0.75 0.4 0
0.8 0.4 0
1.2 0.35 0
1.25 0.35 0
1.2 0.4 0
1.25 0.4 0
1.25 0.35 0
1.3 0.35 0
1.25 0.4 0
1.3 0.4 0
1.3 0.35 0
1.35 0.35 0
1.3 0.4 0
1.35 0.4 0
1.35 0.35 0
1.4 0.35 0
1.35 0.4 0
1.4 0.4 0
1.4 0.35 0
1.45 0.35 0
1.4 0.4 0
1.45 0.4 0
1.45 0.35 0
1.5 0.35 0
1.45 0.4 0
1.5 0.4 0
0 0.4 0
0.05 0.4 0
0 0.45 0
0.05 0.45 0
0.05 0.4 0
0.1 0.4 0
0.05 0.45 0
0.1 0.45 0
0.1 0.4 0
0.15 0.4 0
0.1 0.45 0
0.15 0.45 0
0.15 0.4 0
0.2 0.4 0
0.15 0.45 0
0.2 0.45 0
0.2 0.4 0
0.25 0.4 0
0.2 0.45 0
0.25 0.45 0
0.25 0.4 0
0.3 0.4 0
0.25 0.45 0
0.3 0.45 0
0.3 0.4 0
0.35 0.4 0
0.3 0.45 0
0.35 0.45 0
0.35 0.4 0
0.4 0.4 0
0.35 0.45 0
0.4 0.45 0
0.4 0.4 0
0.45 0.4 0
0.4 0.45 0
0.45 0.45 0
0.75 0.4 0
0.8 0.4 0
0.75 0.45 0
0.8 0.45 0
0.8 0.4 0
0.85 0.4 0
0.8 0.45 0
0.85 0.45 0
0.85 0.4 0
0.9 0.4 0
0.85 0.45 0
0.9 0.45 0
1.15 0.4 0
1.2 0.4 0
1.15 0.45 0
1.2 0.45 0
1.2 0.4 0
1.25 0.4 0
1.2 0.45 0
1.25 0.45 0
1.25 0.4 0
1.3 0.4 0
1.25 0.45 0
1.3 0.45 0
1.3 0.4 0
1.35 0.4 0
1.3 0.45 0
1.35 0.45 0
1.35 0.4 0
1.4 0.4 0
1.35 0.45 0
1.4 0.45 0
1.4 0.4 0
1.45 0.4 0
1.4 0.45 0
1.45 0.45 0
1.45 0.4 0
1.5 0.4 0
1.45 0.45 0
1.5 0.45 0
1.5 0.4 0
1.55 0.4 0
1.5 0.45 0
1.55 0.45 0
1.55 0.4 0
1.6 0.4 0
1.55 0.45 0
1.6 0.45 0
1.85 0.4 0
1.9 0.4 0
1.85 0.45 0
1.9 0.45 0
0 0.45 0
0.05 0.45 0
0 0.5 0
0.05 0.5 0
0.05 0.45 0
0.1 0.45 0
0.05 0.5 0
0.1 0.5 0
0.1 0.45 0
0.15 0.45 0
0.1 0.5 0
0.15 0.5 0
0.15 0.45 0
0.2 0.45 0
0.15 0.5 0
0.2 0.5 0
0.2 0.45 0
0.25 0.45 0
0.2 0.5 0
0.25 0.5 0
0.25 0.45 0
0.3 0.45 0
0.25 0.5 0
0.3 0.5 0
0.3 0.45 0
0.35 0.45 0
0.3 0.5 0
0.35 0.5 0
0.35 0.45 0
0.4 0.45 0
0.35 0.5 0
0.4 0.5 0
0.4 0.45 0
0.45 0.45 0
0.4 0.5 0
0.45 0.5 0
0.45 0.45 0
0.5 0.45 0
0.45 0.5 0
0.5 0.5 0
0.5 0.45 0
0.55 0.45 0
0.5 0.5 0
0.55 0.5 0
0.8 0.45 0
0.85 0.45 0
0.8 0.5 0
0.85 0.5 0
0.85 0.45 0
0.9 0.45 0
0.85 0.5 0
0.9 0.5 0
0.9 0.45 0
0.95 0.45 0
0.9 0.5 0
0.95 0.5 0
0.95 0.45 0
1 0.45 0
0.95 0.5 0
1 0.5 0
1.15 0.45 0
1.2 0.45 0
1.15 0.5 0
1.2 0.5 0
1.2 0.45 0
1.25 0.45 0
1.2 0.5 0
1.25 0.5 0
1.25 0.45 0
1.3 0.45 0
1.25 0.5 0
1.3 0.5 0
1.3 0.45 0
1.35 0.45 0
1.3 0.5 0
1.35 0.5 0
1.35 0.45 0
1.4 0.45 0
1.35 0.5 0
1.4 0.5 0
1.4 0.45 0
1.45 0.45 0
1.4 0.5 0
1.45 0.5 0
1.45 0.45 0
1.5 0.45 0
1.45 0.5 0
1.5 0.5 0
1.5 0.45 0
1.55 0.45 0
1.5 0.5 0
1.55 0.5 0
1.55 0.45 0
1.6 0.45 0
1.55 0.5 0
1.6 0.5 0
1.6 0.45 0
1.65 0.45 0
1.6 0.5 0
1.65 0.5 0
1.9 0.45 0
1.95 0.45 0
1.9 0.5 0
1.95 0.5 0
1.95 0.45 0
2 0.45 0
1.95 0.5 0
2 0.5 0
0 0.5 0
0.05 0.5 0
0 0.55 0
0.05 0.55 0
0.05 0.5 0
0.1 0.5 0
0.05 0.55 0
0.1 0.55 0
0.1 0.5 0
0.15 0.5 0
0.1 0.55 0
0.15 0.55 0
0.15 0.5 0
0.2 0.5 0
0.15 0.55 0
0.2 0.55 0
0.2 0.5 0
0.25 0.5 0
0.2 0.55 0
0.25 0.55 0
0.25 0.5 0
0.3 0.5 0
0.25 0.55 0
0.3 0.55 0
0.3 0.5 0
0.35 0.5 0
0.3 0.55 0
0.35 0.55 0
0.35 0.5 0
0.4 0.5 0
0.35 0.55 0
0.4 0.55 0
0.4 0.5 0
0.45 0.5 0
0.4 0.55 0
0.45 0.55 0
0.45 0.5 0
0.5 0.5 0
0.45 0.55 0
0.5 0.55 0
0.5 0.5 0
0.55 0.5 0
0.5 0.55 0
0.55 0.55 0
0.8 0.5 0
0.85 0.5 0
0.8 0.55 0
0.85 0.55 0
0.85 0.5 0
0.9 0.5 0
0.85 0.55 0
0.9 0.55 0
0.9 0.5 0
0.95 0.5 0
0.9 0.55 0
0.95 0.55 0
0.95 0.5 0
1 0.5 0
0.95 0.55 0
1 0.55 0
1.15 0.5 0
1.2 0.5 0
1.15 0.55 0
1.2 0.55 0
1.2 0.5 0
1.25 0.5 0
1.2 0.55 0
1.25 0.55 0
1.25 0.5 0
1.3 0.5 0
1.25 0.55 0
1.3 0.55 0
1.3 0.5 0
1.35 0.5 0
1.3 0.55 0
1.35 0.55 0
1.35 0.5 0
1.4 0.5 0
1.35 0.55 0
1.4 0.55 0
1.4 0.5 0
1.45 0.5 0
1.4 0.55 0
1.45 0.55 0
1.45 0.5 0
1.5 0.5 0
1.45 0.55 0
1.5 0.55 0
1.5 0.5 0
1.55 0.5 0
1.5 0.55 0
1.55 0.55 0
1.55 0.5 0
1.6 0.5 0
1.55 0.55 0
1.6 0.55 0
1.6 0.5 0
1.65 0.5 0
1.6 0.55 0
1.65 0.55 0
1.9 0.5 0
1.95 0.5 0
1.9 0.55 0
1.95 0.55 0
1.95 0.5 0
2 0.5 0
1.95 0.55 0
2 0.55 0
0 0.55 0
0.05 0.55 0
0 0.6 0
0.05 0.6 0
0.05 0.55 0
0.1 0.55 0
0.05 0.6 0
0.1 0.6 0
0.1 0.55 0
0.15 0.55 0
0.1 0.6 0
0.15 0.6 0
0.15 0.55 0
0.2 0.55 0
0.15 0.6 0
0.2 0.6 0
0.2 0.55 0
0.25 0.55 0
0.2 0.6 0
0.25 0.6 0
0.25 0.55 0
0.3 0.55 0
0.25 0.6 0
0.3 0.6 0
0.3 0.55 0
0.35 0.55 0
0.3 0.6 0
0.35 0.6 0
0.35 0.55 0
0.4 0.55 0
0.35 0.6 0
0.4 0.6 0
0.4 0.55 0
0.45 0.55 0
0.4 0.6 0
0.45 0.6 0
0.75 0.55 0
0.8 0.55 0
0.75 0.6 0
0.8 0.6 0
0.8 0.55 0
0.85 0.55 0
0.8 0.6 0
0.85 0.6 0
0.85 0.55 0
0.9 0.55 0
0.85 0.6 0
0.9 0.6 0
1.15 0.55 0
1.2 0.55 0
1.15 0.6 0
1.2 0.6 0
1.2 0.55 0
1.25 0.55 0
1.2 0.6 0
1.25 0.6 0
1.25 0.55 0
1.3 0.55 0
1.25 0.6 0
1.3 0.6 0
1.3 0.55 0
1.35 0.55 0
1.3 0.6 0
1.35 0.6 0
1.35 0.55 0
1.4 0.55 0
1.35 0.6 0
1.4 0.6 0
1.4 0.55 0
1.45 0.55 0
1.4 0.6 0
1.45 0.6 0
1.45 0.55 0
1.5 0.55 0
1.45 0.6 0
1.5 0.6 0
1.5 0.55 0
1.55 0.55 0
1.5 0.6 0
1.55 0.6 0
1.55 0.55 0
1.6 0.55 0
1.55 0.6 0
1.6 0.6 0
1.85 0.55 0
1.9 0.55 0
1.85 0.6 0
1.9 0.6 0
0 0.6 0
0.05 0.6 0
0 0.65 0
0.05 0.65 0
0.05 0.6 0
0.1 0.6 0
0.05 0.65 0
0.1 0.65 0
0.1 0.6 0
[...]
POINT_DATA 18152
SCALARS x_displacement double 1
LOOKUP_TABLE default
0 1.33292 0 0.779787 1.33292 2.34565 0.779787 1.60463 2.34565 3.19341 1.60463 2.33566 3.19341 3.92401 2.33566 2.9867 3.92401 4.5681 2.9867 3.57223 4.5681 5.15853 3.57223 4.10694 5.15853 5.73077 4.10694 4.60773 5.73077 6.31347 4.60773 5.09553 6.31347 6.91332 5.09553 5.58547 6.91332 7.52249 5.58547 6.07564 7.52249 8.1229 6.07564 6.57594 8.1229 8.70399 6.57594 7.08362 8.70399 9.26656 7.08362 7.60711 9.26656 9.81053 7.60711 8.14943 9.81053 10.3346 8.14943 8.70693 10.3346 10.8483 8.70693 9.27917 10.8483 11.3633 9.27917 9.85931 11.3633 11.8846 9.85931 10.4442 11.8846 12.414 10.4442 11.0323 12.414 12.9562 11.0323 11.618 12.9562 13.5362 11.618 12.1842 13.5362 14.1911 12.1842 12.7211 14.1911 14.9079 12.7211 13.2325 14.9079 15.5895 13.2325 13.7035 15.5895 16.103 13.7035 14.1034 17.8313 17.5684 15.2497 15.7996 17.5684 18.2073 15.7996 15.908 18.2073 18.5305 15.908 16.2137 18.5305 18.7863 16.2137 16.483 18.7863 18.973 16.483 16.7068 18.973 19.0935 16.7068 16.8466 19.0935 19.1484 16.8466 16.9625 19.1484 19.1661 16.9625 17.0339 19.1661 19.1571 17.0339 17.0698 19.1571 19.1419 17.0698 17.0818 19.1419 19.1361 17.0818 17.0853 0 0.779787 0 0.535671 0.779787 1.60463 0.535671 1.09854 1.60463 2.33566 1.09854 1.66505 2.33566 2.9867 1.66505 2.19591 2.9867 3.57223 2.19591 2.68904 3.57223 4.10694 2.68904 3.13709 4.10694 4.60773 3.13709 3.53046 4.60773 5.09553 3.53046 3.88937 13.2325 13.7035 11.6745 11.9634 13.7035 14.1034 11.9634 12.2481 14.1034 14.4321 12.2481 12.4992 15.908 16.2137 13.7084 14.0457 16.2137 16.483 14.0457 14.3884 16.483 16.7068 14.3884 14.4918 16.7068 16.8466 14.4918 14.7158 16.8466 16.9625 14.7158 14.873 16.9625 17.0339 14.873 14.9789 17.0339 17.0698 14.9789 15.0355 17.0698 17.0818 15.0355 15.0562 17.0818 17.0853 15.0562 15.0612 1.66505 2.19591 1.07477 1.49572 2.19591 2.68904 1.49572 1.90089 2.68904 3.13709 1.90089 2.27554 3.13709 3.53046 2.27554 2.60187 14.3884 14.4918 11.7235 12.4572 14.4918 14.7158 12.4572 12.7022 14.7158 14.873 12.7022 12.8879 14.873 14.9789 12.8879 13.0104 14.9789 15.0355 13.0104 13.0857 15.0355 15.0562 13.0857 13.1065 15.0562 15.0612 13.1065 13.104 1.90089 2.27554 1.17628 1.5102 2.27554 2.60187 1.5102 1.82695 2.60187 2.86821 1.82695 2.14264 4.41963 4.5502 3.03802 3.09933 4.5502 5.30942 3.09933 3.27404 5.30942 5.97759 3.27404 4.24401 5.97759 6.74262 4.24401 5.0682 6.74262 7.39519 5.0682 5.99031 7.39519 7.97036 5.99031 7.27269 7.97036 9.69281 7.27269 8.0539 9.69281 9.9401 8.0539 8.59747 12.7022 12.8879 10.7964 10.9588 12.8879 13.0104 10.9588 11.1507 13.0104 13.0857 11.1507 11.2398 13.0857 13.1065 11.2398 11.2569 13.1065 13.104 11.2569 11.2391 1.82695 2.14264 1.10014 1.41236 2.14264 2.44963 1.41236 1.72596 4.24401 5.0682 4.1112 4.61012 5.0682 5.99031 4.61012 5.71549 5.99031 7.27269 5.71549 5.66786 7.27269 8.0539 5.66786 6.59578 10.9588 11.1507 9.28 9.3873 11.1507 11.2398 9.3873 9.49111 11.2398 11.2569 9.49111 9.5216 11.2569 11.2391 9.5216 9.47896 0 -0.111357 0 -0.0192584 -0.111357 -0.305257 -0.0192584 -0.0217212 -0.305257 -0.150406 -0.0217212 -0.027485 1.72596 2.03778 0.994157 1.30782 2.03778 2.35177 1.30782 1.62169 5.71549 5.66786 4.05624 4.82552 5.66786 6.59578 4.82552 5.52004 6.90086 6.96742 5.41218 5.45963 6.96742 6.89521 5.45963 5.5141 9.49111 9.5216 7.87449 7.89664 9.5216 9.47896 7.89664 7.80077 0 -0.0192584 0 0.0144917 -0.0192584 -0.0217212 0.0144917 0.0106443 -0.0217212 -0.027485 0.0106443 -0.00837846 -0.027485 0.0133643 -0.00837846 -0.0277623 0.0133643 -0.00617021 -0.0277623 -0.0172314 1.93759 2.25675 1.19492 1.50217 5.39942 5.41218 3.91475 3.98673 5.41218 5.45963 3.98673 4.06463 5.45963 5.5141 4.06463 4.15483 5.5141 5.63752 4.15483 4.22106 0 0.0144917 0 0.0114785 0.0144917 0.0106443 0.0114785 0.00914617 0.0106443 -0.00837846 0.00914617 -0.0070652 -0.00837846 -0.0277623 -0.0070652 -0.0249642 -0.0277623 -0.0172314 -0.0249642 -0.0431237 -0.0172314 -0.00766597 -0.0431237 -0.0767644 -0.00766597 -0.035752 -0.0767644 -0.161379 1.80378 2.11193 1.03653 1.2938 2.11193 2.43618 1.2938 1.55795 3.91475 3.98673 2.5175 2.61947 3.98673 4.06463 2.61947 2.69256 4.06463 4.15483 2.69256 2.75296 4.15483 4.22106 2.75296 2.79263 4.22106 4.27875 2.79263 2.82404 4.27875 4.72438 2.82404 2.68959 0 0.0114785 0 0.00549771 0.0114785 0.00914617 0.00549771 0.00373114 0.00914617 -0.0070652 0.00373114 -0.00447175 -0.0070652 -0.0249642 -0.00447175 -0.016758 -0.0249642 -0.0431237 -0.016758 -0.0330996 -0.0431237 -0.0767644 -0.0330996 -0.0581596 -0.0767644 -0.161379 -0.0581596 -0.0837001 -0.161379 -0.212337 -0.0837001 -0.123412 -0.212337 -0.483404 -0.123412 -0.0743935 1.2938 1.55795 0.542658 0.731905 1.55795 1.81179 0.731905 0.882067 1.81179 2.03768 0.882067 0.991402 2.34393 2.5175 1.07407 1.21379 2.5175 2.61947 1.21379 1.29164 2.61947 2.69256 1.29164 1.33796 2.69256 2.75296 1.33796 1.36847 2.75296 2.79263 1.36847 1.38448 2.79263 2.82404 1.38448 1.36966 2.82404 2.68959 1.36966 1.38489 2.68959 2.76789 1.38489 1.38543 2.76789 2.73267 1.38543 1.37884 3.81872 4.08254 1.8465 2.04216 0 0.00549771 0 4.26741e-11 0.00549771 0.00373114 4.26741e-11 9.09677e-11 0.00373114 -0.00447175 9.09677e-11 1.23851e-10 -0.00447175 -0.016758 1.23851e-10 7.96733e-11 -0.016758 -0.0330996 7.96733e-11 -1.1336e-10 -0.0330996 -0.0581596 -1.1336e-10 -3.67175e-10 -0.0581596 -0.0837001 -3.67175e-10 8.36802e-10 -0.0837001 -0.123412 8.36802e-10 1.24238e-09 -0.123412 -0.0743935 1.24238e-09 1.54665e-10 -0.0743935 -0.137157 1.54665e-10 -2.10586e-09 -0.137157 -0.0883914 -2.10586e-09 -2.42411e-09 0.731905 0.882067 7.87619e-13 9.61184e-13 0.882067 0.991402 9.61184e-13 8.10585e-13 0.991402 1.04445 8.10585e-13 5.38752e-13 1.04445 1.02682 5.38752e-13 2.4108e-13 1.07407 1.21379 -7.76358e-10 -1.9829e-10 1.21379 1.29164 -1.9829e-10 3.25776e-10 1.29164 1.33796 3.25776e-10 -2.48332e-10 1.33796 1.36847 -2.48332e-10 -2.20946e-11 1.36847 1.38448 -2.20946e-11 3.05866e-10 1.38448 1.36966 3.05866e-10 2.38194e-11 1.36966 1.38489 2.38194e-11 -2.98547e-11 1.38489 1.38543 -2.98547e-11 1.55333e-10 1.38543 1.37884 1.55333e-10 1.18909e-10 1.37884 1.3772 1.18909e-10 -2.87218e-10 2.04216 2.24743 1.19873e-12 1.06206e-12 2.24743 2.25207 1.06206e-12 1.03544e-12 0 4.26741e-11 0 -0.00549771 4.26741e-11 9.09677e-11 -0.00549771 -0.00373114 9.09677e-11 1.23851e-10 -0.00373114 0.00447175 1.23851e-10 7.96733e-11 0.00447175 0.016758 7.96733e-11 -1.1336e-10 0.016758 0.0330996 -1.1336e-10 -3.67175e-10 0.0330996 0.0581596 -3.67175e-10 8.36802e-10 0.0581596 0.0837001 8.36802e-10 1.24238e-09 0.0837001 0.123412 1.24238e-09 1.54665e-10 0.123412 0.0743935 1.54665e-10 -2.10586e-09 0.0743935 0.137157 -2.10586e-09 -2.42411e-09 0.137157 0.0883914 7.87619e-13 9.61184e-13 -0.731905 -0.882067 9.61184e-13 8.10585e-13 -0.882067 -0.991402 8.10585e-13 5.38752e-13 -0.991402 -1.04445 5.38752e-13 2.4108e-13 -1.04445 -1.02682 -7.76358e-10 -1.9829e-10 -1.07407 -1.21379 -1.9829e-10 3.25776e-10 -1.21379 -1.29164 3.25776e-10 -2.48332e-10 -1.29164 -1.33796 -2.48332e-10 -2.20946e-11 -1.33796 -1.36847 -2.20946e-11 3.05866e-10 -1.36847 -1.38448 3.05866e-10 2.38194e-11 -1.38448 -1.36966 2.38194e-11 -2.98547e-11 -1.36966 -1.38489 -2.98547e-11 1.55333e-10 -1.38489 -1.38543 1.55333e-10 1.18909e-10 -1.38543 -1.37884 1.18909e-10 -2.87218e-10 -1.37884 -1.3772 1.19873e-12 1.06206e-12 -2.04216 -2.24743 1.06206e-12 1.03544e-12 -2.24743 -2.25207 0 -0.00549771 0 -0.0114785 -0.00549771 -0.00373114 -0.0114785 -0.00914617 -0.00373114 0.00447175 -0.00914617 0.0070652 0.00447175 0.016758 0.0070652 0.0249642 0.016758 0.0330996 0.0249642 0.0431237 0.0330996 0.0581596 0.0431237 0.0767644 0.0581596 0.0837001 0.0767644 0.161379 0.0837001 0.123412 0.161379 0.212337 0.123412 0.0743935 0.212337 0.483404 -0.542658 -0.731905 -1.2938 -1.55795 -0.731905 -0.882067 -1.55795 -1.81179 -0.882067 -0.991402 -1.81179 -2.03768 -1.07407 -1.21379 -2.34393 -2.5175 -1.21379 -1.29164 -2.5175 -2.61947 -1.29164 -1.33796 -2.61947 -2.69256 -1.33796 -1.36847 -2.69256 -2.75296 -1.36847 -1.38448 -2.75296 -2.79263 -1.38448 -1.36966 -2.79263 -2.82404 -1.36966 -1.38489 -2.82404 -2.68959 -1.38489 -1.38543 -2.68959 -2.76789 -1.38543 -1.37884 -2.76789 -2.73267 -1.8465 -2.04216 -3.81872 -4.08254 0 -0.0114785 0 -0.0144917 -0.0114785 -0.00914617 -0.0144917 -0.0106443 -0.00914617 0.0070652 -0.0106443 0.00837846 0.0070652 0.0249642 0.00837846 0.0277623 0.0249642 0.0431237 0.0277623 0.0172314 0.0431237 0.0767644 0.0172314 0.00766598 0.0767644 0.161379 0.00766598 0.035752 -1.03653 -1.2938 -1.80378 -2.11193 -1.2938 -1.55795 -2.11193 -2.43618 -2.5175 -2.61947 -3.91475 -3.98673 -2.61947 -2.69256 -3.98673 -4.06463 -2.69256 -2.75296 -4.06463 -4.15483 -2.75296 -2.79263 -4.15483 -4.22106 -2.79263 -2.82404 -4.22106 -4.27875 -2.82404 -2.68959 -4.27875 -4.72438 0 -0.0144917 0 0.0192584 -0.0144917 -0.0106443 0.0192584 0.0217212 -0.0106443 0.00837846 0.0217212 0.027485 0.00837846 0.0277623 0.027485 -0.0133643 0.0277623 0.0172314 -0.0133643 0.00617021 -1.19492 -1.50217 -1.93759 -2.25675 -3.91475 -3.98673 -5.39942 -5.41218 -3.98673 -4.06463 -5.41218 -5.45963 -4.06463 -4.15483 -5.45963 -5.5141 -4.15483 -4.22106 -5.5141 -5.63752 0 0.0192584 0 0.111357 0.0192584 0.0217212 0.111357 0.305257 0.0217212 0.027485 0.305257 0.150406 -0.994157 -1.30782 -1.72596 -2.03778 -1.30782 -1.62169 -2.03778 -2.35177 -4.05624 -4.82552 -5.71549 -5.66786 -4.82552 -5.52004 -5.66786 -6.59578 -5.41218 -5.45963 -6.90086 -6.96742 -5.45963 -5.5141 -6.96742 -6.89521 -7.87449 -7.89664 -9.49111 -9.5216 -7.89664 -7.80077 -9.5216 -9.47896 -1.10014 -1.41236 -1.82695 -2.14264 -1.41236 -1.72596 -2.14264 -2.44963 -4.1112 -4.61012 -4.24401 -5.0682 -4.61012 -5.71549 -5.0682 -5.99031 -5.71549 -5.66786 -5.99031 -7.27269 -5.66786 -6.59578 -7.27269 -8.0539 -9.28 -9.3873 -10.9588 -11.1507 -9.3873 -9.49111 -11.1507 -11.2398 -9.49111 -9.5216 -11.2398 -11.2569 -9.5216 -9.47896 -11.2569 -11.2391 -1.17628 -1.5102 -1.90089 -2.27554 -1.5102 -1.82695 -2.27554 -2.60187 -1.82695 -2.14264 -2.60187 -2.86821 -3.03802 -3.09933 -4.41963 -4.5502 -3.09933 -3.27404 -4.5502 -5.30942 -3.27404 -4.24401 -5.30942 -5.97759 -4.24401 -5.0682 -5.97759 -6.74262 -5.0682 -5.99031 -6.74262 -7.39519 -5.99031 -7.27269 -7.39519 -7.97036 -7.27269 -8.0539 -7.97036 -9.69281 -8.0539 -8.59747 -9.69281 -9.9401 -10.7964 -10.9588 -12.7022 -12.8879 -10.9588 -11.1507 -12.8879 -13.0104 -11.1507 -11.2398 -13.0104 -13.0857 -11.2398 -11.2569 -13.0857 -13.1065 -11.2569 -11.2391 -13.1065 -13.104 -1.07477 -1.49572 -1.66505 -2.19591 -1.49572 -1.90089 -2.19591 -2.68904 -1.90089 -2.27554 -2.68904 -3.13709 -2.27554 -2.60187 -3.13709 -3.53046 -11.7235 -12.4572 -14.3884 -14.4918 -12.4572 -12.7022 -14.4918 -14.7158 -12.7022 -12.8879 -14.7158 -14.873 -12.8879 -13.0104 -14.873 -14.9789 -13.0104 -13.0857 -14.9789 -15.0355 -13.0857 -13.1065 -15.0355 -15.0562 -13.1065 -13.104 -15.0562 -15.0612 0 -0.535671 0 -0.779787 -0.535671 -1.09854 -0.779787 -1.60463 -1.09854 -1.66505 -1.60463 -2.33566 -1.66505 -2.19591 -2.33566 -2.9867 -2.19591 -2.68904 -2.9867 -3.57223 -2.68904 -3.13709 -3.57223 -4.10694 -3.13709 -3.53046 -4.10694 -4.60773 -3.53046 -3.88937 -4.60773 -5.09553 -11.6745 -11.9634 -13.2325 -13.7035 -11.9634 -12.2481 -13.7035 -14.1034 -12.2481 -12.4992 -14.1034 -14.4321 -13.7084 -14.0457 -15.908 -16.2137 -14.0457 -14.3884 -16.2137 -16.483 -14.3884 -14.4918 -16.483 -16.7068 -14.4918 -14.7158 -16.7068 -16.8466 -14.7158 -14.873 -16.8466 -16.9625 -14.873 -14.9789 -16.9625 -17.0339 -14.9789 -15.0355 -17.0339 -17.0698 -15.0355 -15.0562 -17.0698 -17.0818 -15.0562 -15.0612 -17.0818 -17.0853 0 -0.779787 0 -1.33292 -0.779787 -1.60463 -1.33292 -2.34565 -1.60463 -2.33566 -2.34565 -3.19341 -2.33566 -2.9867 -3.19341 -3.92401 -2.9867 -3.57223 -3.92401 -4.5681 -3.57223 -4.10694 -4.5681 -5.15853 -4.10694 -4.60773 -5.15853 -5.73077 -4.60773 -5.09553 -5.73077 -6.31347 -5.09553 -5.58547 -6.31347 -6.91332 -5.58547 -6.07564 -6.91332 -7.52249 -6.07564 -6.57594 -7.52249 -8.1229 -6.57594 -7.08362 -8.1229 -8.70399 -7.08362 -7.60711 -8.70399 -9.26656 -7.60711 -8.14943 -9.26656 -9.81053 -8.14943 -8.70693 -9.81053 -10.3346 -8.70693 -9.27917 -10.3346 -10.8483 -9.27917 -9.85931 -10.8483 -11.3633 -9.85931 -10.4442 -11.3633 -11.8846 -10.4442 -11.0323 -11.8846 -12.414 -11.0323 -11.618 -12.414 -12.9562 -11.618 -12.1842 -12.9562 -13.5362 -12.1842 -12.7211 -13.5362 -14.1911 -12.7211 -13.2325 -14.1911 -14.9079 -13.2325 -13.7035 -14.9079 -15.5895 -13.7035 -14.1034 -15.5895 -16.103 -15.2497 -15.7996 -17.8313 -17.5684 -15.7996 -15.908 -17.5684 -18.2073 -15.908 -16.2137 -18.2073 -18.5305 -16.2137 -16.483 -18.5305 -18.7863 -16.483 -16.7068 -18.7863 -18.973 -16.7068 -16.8466 -18.973 -19.0935 -16.8466 -16.9625 -19.0935 -19.1484 -16.9625 -17.0339 -19.1484 -19.1661 -17.0339 -17.0698 -19.1661 -19.1571 -17.0698 -17.0818 -19.1571 -19.1419 -17.0818 -17.0853 -19.1419 -19.1361 17.1147 16.2684 15.6022 15.9055 5.58547 5.83055 4.91938 5.13215 5.83055 6.07564 5.13215 5.34761 4.91938 5.13215 4.24985 4.43315 5.13215 5.34761 4.43315 4.61539 6.07564 6.32579 5.34761 5.56816 6.32579 6.57594 5.56816 5.79684 5.34761 5.56816 4.61539 4.79649 5.56816 5.79684 4.79649 4.98864 6.57594 6.82978 5.79684 6.02827 6.82978 7.08362 6.02827 6.26845 7.08362 7.34537 6.26845 6.51467 7.34537 7.60711 6.51467 6.76997 7.60711 7.87827 6.76997 7.03299 7.87827 8.14943 7.03299 7.30781 8.14943 8.42818 7.30781 7.592 8.42818 8.70693 7.592 7.88674 8.70693 8.99305 7.88674 8.18636 8.99305 9.27917 8.18636 8.49045 9.27917 9.56924 8.49045 8.79653 9.56924 9.85931 8.79653 9.10418 9.85931 10.1518 9.10418 9.41214 10.1518 10.4442 9.41214 9.72053 10.4442 10.7382 9.72053 10.029 10.7382 11.0323 10.029 10.3373 11.0323 11.3252 10.3373 10.6452 11.3252 11.618 10.6452 10.9493 11.618 11.9011 10.9493 11.2462 11.9011 12.1842 11.2462 11.5235 12.1842 12.4527 11.5235 11.7803 12.4527 12.7211 11.7803 12.006 13.7204 13.8371 12.7437 12.8684 15.2497 15.5247 14.2439 14.1686 15.5247 15.7996 14.1686 14.5146 0 0.267836 0 0.201799 0.267836 0.535671 0.201799 0.418211 0.535671 0.817105 0.418211 0.64853 0.817105 1.09854 0.64853 0.886976 0.418211 0.64853 0.295687 0.485876 0.64853 0.886976 0.485876 0.666145 5.09943 5.27041 4.41963 4.48491 5.27041 5.5428 4.48491 4.5502 5.5428 5.86957 4.5502 4.92981 5.86957 6.20232 4.92981 5.30942 6.20232 6.51552 5.30942 5.64351 6.51552 6.87476 5.64351 5.97759 6.87476 7.22522 5.97759 6.36011 7.22522 7.56418 6.36011 6.74262 7.56418 7.90125 6.74262 7.06891 7.90125 8.23076 7.06891 7.39519 8.23076 8.55918 7.39519 7.68278 8.55918 8.87811 7.68278 7.97036 8.87811 9.23506 7.97036 8.83159 9.23506 9.79553 8.83159 9.69281 9.79553 10.2219 9.69281 9.81646 10.2219 10.3797 9.81646 9.9401 10.3797 10.5715 9.9401 9.68257 11.5279 11.6745 10.8691 10.9346 12.2481 12.3736 11.2822 11.3882 12.3736 12.4992 11.3882 11.5055 13.7084 13.8771 12.7121 12.9458 13.8771 14.0457 12.9458 13.2143 12.9458 13.2143 11.9865 11.9144 0 0.213277 0 -0.178022 0.866081 1.07477 0.599878 0.785092 1.07477 1.28524 0.785092 0.970233 1.28524 1.49572 0.970233 1.1606 3.59801 3.80432 3.21148 3.16329 3.80432 3.71029 3.16329 3.37646 3.71029 3.90048 3.37646 3.75932 9.9401 9.68257 9.26879 9.47796 9.26879 9.47796 8.59747 8.54361 10.1318 10.1597 9.33938 9.35333 9.33938 9.35333 8.55012 8.55639 10.7729 10.9092 9.79032 9.92957 10.9092 11.0427 9.92957 10.0661 10.6074 10.7384 9.64035 9.77407 10.7384 10.8764 9.77407 9.90538 12.5577 11.7235 11.0699 11.4332 0.121608 0.298776 -0.305257 -0.227831 0.298776 0.271616 -0.227831 -0.150406 1.17628 1.34324 0.833411 0.990577 1.34324 1.5102 0.990577 1.14716 2.40003 2.55363 2.03778 2.19477 2.55363 2.70722 2.19477 2.35177 3.03802 3.06867 3.1251 3.54092 3.06867 3.09933 3.54092 3.68695 7.71076 7.66677 6.93451 6.90086 7.64299 8.0106 6.96742 6.93132 8.0106 8.03523 6.93132 6.89521 9.23189 9.36996 8.26421 8.39941 9.21669 9.34555 8.25984 8.39612 10.7417 10.7964 9.81239 10.1288 -0.0236683 0.29527 0.0133643 0.00359707 0.29527 0.348054 0.00359707 -0.00617021 1.10014 1.25625 0.744589 0.894933 1.25625 1.41236 0.894933 1.04761 2.30748 2.46987 1.93759 2.09717 2.46987 2.63474 2.09717 2.25675 4.00412 4.1112 3.35878 3.33325 4.1112 4.36066 3.33325 3.7601 4.36066 4.61012 3.7601 4.18525 6.59578 6.97143 6.05791 6.26023 6.05791 6.26023 5.52004 5.56077 6.99254 7.00339 6.23506 6.23852 6.23506 6.23852 5.4773 5.49049 6.16092 6.48239 5.63752 5.67788 7.84923 7.9871 6.89698 7.03176 7.84241 7.97139 6.89034 7.03026 9.28 9.33365 8.25098 8.26511 9.33365 9.3873 8.26511 8.56935 -0.0401562 0.120712 -0.00766597 -0.021709 0.120712 0.238555 -0.021709 -0.035752 0.994157 1.15099 0.625406 0.781401 1.15099 1.30782 0.781401 0.932959 2.58286 2.7412 2.19341 2.35861 2.7412 2.92921 2.35861 2.53146 2.19341 2.35861 1.80378 1.95785 2.35861 2.53146 1.95785 2.11193 2.53146 2.69569 2.11193 2.27405 2.69569 2.87151 2.27405 2.43618 4.05624 4.44088 3.5856 3.48002 4.44088 4.82552 3.48002 4.10541 5.38933 5.39942 4.56933 4.65708 4.56933 4.65708 3.90477 3.91475 4.75514 5.08703 4.72438 3.52754 6.35211 6.48562 5.39135 5.53166 6.48562 6.61969 5.53166 5.6658 6.21344 6.34918 5.25201 5.38408 6.34918 6.48868 5.38408 5.52052 7.87449 7.88557 6.89428 6.96265 7.88557 7.89664 6.96265 7.13906 0.246811 0.131313 -0.556332 -0.126548 -0.556332 -0.126548 -0.212337 -0.347871 -0.126548 0.206641 -0.347871 -0.483404 0.206641 0.13865 -0.483404 -0.239284 1.03589 1.19492 0.671923 0.822853 2.76567 2.93527 2.28859 2.43598 2.28859 2.43598 1.81179 1.92474 2.43598 2.57471 1.92474 2.03768 2.57471 2.71669 2.03768 2.14533 3.95391 3.95909 3.18987 3.19107 3.18987 3.19107 2.4246 2.4441 4.37862 4.30535 3.09093 3.36902 3.09093 3.36902 2.76789 2.75028 3.36902 3.63786 2.75028 2.73267 4.81586 4.95313 3.81872 3.95063 4.95313 5.09114 3.95063 4.08254 6.5931 6.36088 5.40326 5.46769 -0.265258 0.155276 -0.0883914 -0.381286 0.902264 1.03653 0.54953 0.672046 2.3482 2.34393 1.58449 1.709 1.58449 1.709 0.997083 1.07407 1.93665 2.1391 1.3772 1.36421 3.45446 3.57355 2.50581 2.61258 3.25604 3.31975 2.24743 2.24975 3.31975 3.33363 2.24975 2.25207 -0.323712 0.0523048 -3.45291e-11 -6.77997e-13 0.0523048 0.0569053 -6.77997e-13 -3.6709e-13 1.02682 1.02273 0.513412 0.463918 0.513412 0.463918 2.4108e-13 2.08668e-13 0.538232 0.67046 -3.72685e-13 -2.55563e-11 1.75536 1.8465 0.825584 0.897529 -3.45291e-11 -6.77997e-13 0.323712 -0.0523048 -6.77997e-13 -3.6709e-13 -0.0523048 -0.0569053 2.4108e-13 2.08668e-13 -0.513412 -0.463918 -0.513412 -0.463918 -1.02682 -1.02273 -3.72685e-13 -2.55563e-11 -0.538232 -0.67046 -0.825584 -0.897529 -1.75536 -1.8465 0.0883914 0.381286 0.265258 -0.155276 -0.54953 -0.672046 -0.902264 -1.03653 -0.997083 -1.07407 -1.58449 -1.709 -1.58449 -1.709 -2.3482 -2.34393 -1.3772 -1.36421 -1.93665 -2.1391 -2.50581 -2.61258 -3.45446 -3.57355 -2.24743 -2.24975 -3.25604 -3.31975 -2.24975 -2.25207 -3.31975 -3.33363 0.212337 0.347871 0.556332 0.126548 0.347871 0.483404 0.126548 -0.206641 0.556332 0.126548 -0.246811 -0.131313 0.483404 0.239284 -0.206641 -0.13865 -0.671923 -0.822853 -1.03589 -1.19492 -1.81179 -1.92474 -2.28859 -2.43598 -1.92474 -2.03768 -2.43598 -2.57471 -2.28859 -2.43598 -2.76567 -2.93527 -2.03768 -2.14533 -2.57471 -2.71669 -2.4246 -2.4441 -3.18987 -3.19107 -3.18987 -3.19107 -3.95391 -3.95909 -2.76789 -2.75028 -3.09093 -3.36902 -2.75028 -2.73267 -3.36902 -3.63786 -3.09093 -3.36902 -4.37862 -4.30535 -3.81872 -3.95063 -4.81586 -4.95313 -3.95063 -4.08254 -4.95313 -5.09114 -5.40326 -5.46769 -6.5931 -6.36088 0.00766598 0.021709 0.0401562 -0.120712 0.021709 0.035752 -0.120712 -0.238555 -0.625406 -0.781401 -0.994157 -1.15099 -0.781401 -0.932959 -1.15099 -1.30782 -1.80378 -1.95785 -2.19341 -2.35861 -1.95785 -2.11193 -2.35861 -2.53146 -2.19341 -2.35861 -2.58286 -2.7412 -2.35861 -2.53146 -2.7412 -2.92921 -2.11193 -2.27405 -2.53146 -2.69569 -2.27405 -2.43618 -2.69569 -2.87151 -3.5856 -3.48002 -4.05624 -4.44088 -3.48002 -4.10541 -4.44088 -4.82552 -3.90477 -3.91475 -4.56933 -4.65708 -4.56933 -4.65708 -5.38933 -5.39942 -4.72438 -3.52754 -4.75514 -5.08703 -5.39135 -5.53166 -6.35211 -6.48562 -5.53166 -5.6658 -6.48562 -6.61969 -5.25201 -5.38408 -6.21344 -6.34918 -5.38408 -5.52052 -6.34918 -6.48868 -6.89428 -6.96265 -7.87449 -7.88557 -6.96265 -7.13906 -7.88557 -7.89664 -0.0133643 -0.00359707 0.02366