# vtk DataFile Version 3.0
#This file was generated by the deal.II library on 2015/9/2 at 7:21:53
ASCII
DATASET UNSTRUCTURED_GRID

POINTS 51200 double
0 0 0
0.0125 0 0
0 0.0125 0
0.0125 0.0125 0
0.0125 0 0
0.025 0 0
0.0125 0.0125 0
0.025 0.0125 0
0 0.0125 0
0.0125 0.0125 0
0 0.025 0
0.0125 0.025 0
0.0125 0.0125 0
0.025 0.0125 0
0.0125 0.025 0
0.025 0.025 0
0.025 0 0
0.0375 0 0
0.025 0.0125 0
0.0375 0.0125 0
0.0375 0 0
0.05 0 0
0.0375 0.0125 0
0.05 0.0125 0
0.025 0.0125 0
0.0375 0.0125 0
0.025 0.025 0
0.0375 0.025 0
0.0375 0.0125 0
0.05 0.0125 0
0.0375 0.025 0
0.05 0.025 0
0 0.025 0
0.0125 0.025 0
0 0.0375 0
0.0125 0.0375 0
0.0125 0.025 0
0.025 0.025 0
0.0125 0.0375 0
0.025 0.0375 0
0 0.0375 0
0.0125 0.0375 0
0 0.05 0
0.0125 0.05 0
0.0125 0.0375 0
0.025 0.0375 0
0.0125 0.05 0
0.025 0.05 0
0.025 0.025 0
0.0375 0.025 0
0.025 0.0375 0
0.0375 0.0375 0
0.0375 0.025 0
0.05 0.025 0
0.0375 0.0375 0
0.05 0.0375 0
0.025 0.0375 0
0.0375 0.0375 0
0.025 0.05 0
0.0375 0.05 0
0.0375 0.0375 0
0.05 0.0375 0
0.0375 0.05 0
0.05 0.05 0
0.05 0 0
0.0625 0 0
0.05 0.0125 0
0.0625 0.0125 0
0.0625 0 0
0.075 0 0
0.0625 0.0125 0
0.075 0.0125 0
0.05 0.0125 0
0.0625 0.0125 0
0.05 0.025 0
0.0625 0.025 0
0.0625 0.0125 0
0.075 0.0125 0
0.0625 0.025 0
0.075 0.025 0
0.075 0 0
0.0875 0 0
0.075 0.0125 0
0.0875 0.0125 0
0.0875 0 0
0.1 0 0
0.0875 0.0125 0
0.1 0.0125 0
0.075 0.0125 0
0.0875 0.0125 0
0.075 0.025 0
0.0875 0.025 0
0.0875 0.0125 0
0.1 0.0125 0
0.0875 0.025 0
0.1 0.025 0
0.05 0.025 0
0.0625 0.025 0
0.05 0.0375 0
0.0625 0.0375 0
0.0625 0.025 0
0.075 0.025 0
0.0625 0.0375 0
0.075 0.0375 0
0.05 0.0375 0
0.0625 0.0375 0
0.05 0.05 0
0.0625 0.05 0
0.0625 0.0375 0
0.075 0.0375 0
0.0625 0.05 0
0.075 0.05 0
0.075 0.025 0
0.0875 0.025 0
0.075 0.0375 0
0.0875 0.0375 0
0.0875 0.025 0
0.1 0.025 0
0.0875 0.0375 0
0.1 0.0375 0
0.075 0.0375 0
0.0875 0.0375 0
0.075 0.05 0
0.0875 0.05 0
0.0875 0.0375 0
0.1 0.0375 0
0.0875 0.05 0
0.1 0.05 0
0.1 0 0
0.1125 0 0
0.1 0.0125 0
0.1125 0.0125 0
0.1125 0 0
0.125 0 0
0.1125 0.0125 0
0.125 0.0125 0
0.1 0.0125 0
0.1125 0.0125 0
0.1 0.025 0
0.1125 0.025 0
0.1125 0.0125 0
0.125 0.0125 0
0.1125 0.025 0
0.125 0.025 0
0.125 0 0
0.1375 0 0
0.125 0.0125 0
0.1375 0.0125 0
0.1375 0 0
0.15 0 0
0.1375 0.0125 0
0.15 0.0125 0
0.125 0.0125 0
0.1375 0.0125 0
0.125 0.025 0
0.1375 0.025 0
0.1375 0.0125 0
0.15 0.0125 0
0.1375 0.025 0
0.15 0.025 0
0.1 0.025 0
0.1125 0.025 0
0.1 0.0375 0
0.1125 0.0375 0
0.1125 0.025 0
0.125 0.025 0
0.1125 0.0375 0
0.125 0.0375 0
0.1 0.0375 0
0.1125 0.0375 0
0.1 0.05 0
0.1125 0.05 0
0.1125 0.0375 0
0.125 0.0375 0
0.1125 0.05 0
0.125 0.05 0
0.125 0.025 0
0.1375 0.025 0
0.125 0.0375 0
0.1375 0.0375 0
0.1375 0.025 0
0.15 0.025 0
0.1375 0.0375 0
0.15 0.0375 0
0.125 0.0375 0
0.1375 0.0375 0
0.125 0.05 0
0.1375 0.05 0
0.1375 0.0375 0
0.15 0.0375 0
0.1375 0.05 0
0.15 0.05 0
0.15 0 0
0.1625 0 0
0.15 0.0125 0
0.1625 0.0125 0
0.1625 0 0
0.175 0 0
0.1625 0.0125 0
0.175 0.0125 0
0.15 0.0125 0
0.1625 0.0125 0
0.15 0.025 0
0.1625 0.025 0
0.1625 0.0125 0
0.175 0.0125 0
0.1625 0.025 0
0.175 0.025 0
0.175 0 0
0.1875 0 0
0.175 0.0125 0
0.1875 0.0125 0
0.1875 0 0
0.2 0 0
0.1875 0.0125 0
0.2 0.0125 0
0.175 0.0125 0
0.1875 0.0125 0
0.175 0.025 0
0.1875 0.025 0
0.1875 0.0125 0
0.2 0.0125 0
0.1875 0.025 0
0.2 0.025 0
0.15 0.025 0
0.1625 0.025 0
0.15 0.0375 0
0.1625 0.0375 0
0.1625 0.025 0
0.175 0.025 0
0.1625 0.0375 0
0.175 0.0375 0
0.15 0.0375 0
0.1625 0.0375 0
0.15 0.05 0
0.1625 0.05 0
0.1625 0.0375 0
0.175 0.0375 0
0.1625 0.05 0
0.175 0.05 0
0.175 0.025 0
0.1875 0.025 0
0.175 0.0375 0
0.1875 0.0375 0
0.1875 0.025 0
0.2 0.025 0
0.1875 0.0375 0
0.2 0.0375 0
0.175 0.0375 0
0.1875 0.0375 0
0.175 0.05 0
0.1875 0.05 0
0.1875 0.0375 0
0.2 0.0375 0
0.1875 0.05 0
0.2 0.05 0
0.2 0 0
0.2125 0 0
0.2 0.0125 0
0.2125 0.0125 0
0.2125 0 0
0.225 0 0
0.2125 0.0125 0
0.225 0.0125 0
0.2 0.0125 0
0.2125 0.0125 0
0.2 0.025 0
0.2125 0.025 0
0.2125 0.0125 0
0.225 0.0125 0
0.2125 0.025 0
0.225 0.025 0
0.225 0 0
0.2375 0 0
0.225 0.0125 0
0.2375 0.0125 0
0.2375 0 0
0.25 0 0
0.2375 0.0125 0
0.25 0.0125 0
0.225 0.0125 0
0.2375 0.0125 0
0.225 0.025 0
0.2375 0.025 0
0.2375 0.0125 0
0.25 0.0125 0
0.2375 0.025 0
0.25 0.025 0
0.2 0.025 0
0.2125 0.025 0
0.2 0.0375 0
0.2125 0.0375 0
0.2125 0.025 0
0.225 0.025 0
0.2125 0.0375 0
0.225 0.0375 0
0.2 0.0375 0
0.2125 0.0375 0
0.2 0.05 0
0.2125 0.05 0
0.2125 0.0375 0
0.225 0.0375 0
0.2125 0.05 0
0.225 0.05 0
0.225 0.025 0
0.2375 0.025 0
0.225 0.0375 0
0.2375 0.0375 0
0.2375 0.025 0
0.25 0.025 0
0.2375 0.0375 0
0.25 0.0375 0
0.225 0.0375 0
0.2375 0.0375 0
0.225 0.05 0
0.2375 0.05 0
0.2375 0.0375 0
0.25 0.0375 0
0.2375 0.05 0
0.25 0.05 0
0.25 0 0
0.2625 0 0
0.25 0.0125 0
0.2625 0.0125 0
0.2625 0 0
0.275 0 0
0.2625 0.0125 0
0.275 0.0125 0
0.25 0.0125 0
0.2625 0.0125 0
0.25 0.025 0
0.2625 0.025 0
0.2625 0.0125 0
0.275 0.0125 0
0.2625 0.025 0
0.275 0.025 0
0.275 0 0
0.2875 0 0
0.275 0.0125 0
0.2875 0.0125 0
0.2875 0 0
0.3 0 0
0.2875 0.0125 0
0.3 0.0125 0
0.275 0.0125 0
0.2875 0.0125 0
0.275 0.025 0
0.2875 0.025 0
0.2875 0.0125 0
0.3 0.0125 0
0.2875 0.025 0
0.3 0.025 0
0.25 0.025 0
0.2625 0.025 0
0.25 0.0375 0
0.2625 0.0375 0
0.2625 0.025 0
0.275 0.025 0
0.2625 0.0375 0
0.275 0.0375 0
0.25 0.0375 0
0.2625 0.0375 0
0.25 0.05 0
0.2625 0.05 0
0.2625 0.0375 0
0.275 0.0375 0
0.2625 0.05 0
0.275 0.05 0
0.275 0.025 0
0.2875 0.025 0
0.275 0.0375 0
0.2875 0.0375 0
0.2875 0.025 0
0.3 0.025 0
0.2875 0.0375 0
0.3 0.0375 0
0.275 0.0375 0
0.2875 0.0375 0
0.275 0.05 0
0.2875 0.05 0
0.2875 0.0375 0
0.3 0.0375 0
0.2875 0.05 0
0.3 0.05 0
0.3 0 0
0.3125 0 0
0.3 0.0125 0
0.3125 0.0125 0
0.3125 0 0
0.325 0 0
0.3125 0.0125 0
0.325 0.0125 0
0.3 0.0125 0
0.3125 0.0125 0
0.3 0.025 0
0.3125 0.025 0
0.3125 0.0125 0
0.325 0.0125 0
0.3125 0.025 0
0.325 0.025 0
0.325 0 0
0.3375 0 0
0.325 0.0125 0
0.3375 0.0125 0
0.3375 0 0
0.35 0 0
0.3375 0.0125 0
0.35 0.0125 0
0.325 0.0125 0
0.3375 0.0125 0
0.325 0.025 0
0.3375 0.025 0
0.3375 0.0125 0
0.35 0.0125 0
0.3375 0.025 0
0.35 0.025 0
0.3 0.025 0
0.3125 0.025 0
0.3 0.0375 0
0.3125 0.0375 0
0.3125 0.025 0
0.325 0.025 0
0.3125 0.0375 0
0.325 0.0375 0
0.3 0.0375 0
0.3125 0.0375 0
0.3 0.05 0
0.3125 0.05 0
0.3125 0.0375 0
0.325 0.0375 0
0.3125 0.05 0
0.325 0.05 0
0.325 0.025 0
0.3375 0.025 0
0.325 0.0375 0
0.3375 0.0375 0
0.3375 0.025 0
0.35 0.025 0
0.3375 0.0375 0
0.35 0.0375 0
0.325 0.0375 0
0.3375 0.0375 0
0.325 0.05 0
0.3375 0.05 0
0.3375 0.0375 0
0.35 0.0375 0
0.3375 0.05 0
0.35 0.05 0
0.35 0 0
0.3625 0 0
0.35 0.0125 0
0.3625 0.0125 0
0.3625 0 0
0.375 0 0
0.3625 0.0125 0
0.375 0.0125 0
0.35 0.0125 0
0.3625 0.0125 0
0.35 0.025 0
0.3625 0.025 0
0.3625 0.0125 0
0.375 0.0125 0
0.3625 0.025 0
0.375 0.025 0
0.375 0 0
0.3875 0 0
0.375 0.0125 0
0.3875 0.0125 0
0.3875 0 0
0.4 0 0
0.3875 0.0125 0
0.4 0.0125 0
0.375 0.0125 0
0.3875 0.0125 0
0.375 0.025 0
0.3875 0.025 0
0.3875 0.0125 0
0.4 0.0125 0
0.3875 0.025 0
0.4 0.025 0
0.35 0.025 0
0.3625 0.025 0
0.35 0.0375 0
0.3625 0.0375 0
0.3625 0.025 0
0.375 0.025 0
0.3625 0.0375 0
0.375 0.0375 0
0.35 0.0375 0
0.3625 0.0375 0
0.35 0.05 0
0.3625 0.05 0
0.3625 0.0375 0
0.375 0.0375 0
0.3625 0.05 0
0.375 0.05 0
0.375 0.025 0
0.3875 0.025 0
0.375 0.0375 0
0.3875 0.0375 0
0.3875 0.025 0
0.4 0.025 0
0.3875 0.0375 0
0.4 0.0375 0
0.375 0.0375 0
0.3875 0.0375 0
0.375 0.05 0
0.3875 0.05 0
0.3875 0.0375 0
0.4 0.0375 0
0.3875 0.05 0
0.4 0.05 0
0.4 0 0
0.4125 0 0
0.4 0.0125 0
0.4125 0.0125 0
0.4125 0 0
0.425 0 0
0.4125 0.0125 0
0.425 0.0125 0
0.4 0.0125 0
0.4125 0.0125 0
0.4 0.025 0
0.4125 0.025 0
0.4125 0.0125 0
0.425 0.0125 0
0.4125 0.025 0
0.425 0.025 0
0.425 0 0
0.4375 0 0
0.425 0.0125 0
0.4375 0.0125 0
0.4375 0 0
0.45 0 0
0.4375 0.0125 0
0.45 0.0125 0
0.425 0.0125 0
0.4375 0.0125 0
0.425 0.025 0
0.4375 0.025 0
0.4375 0.0125 0
0.45 0.0125 0
0.4375 0.025 0
0.45 0.025 0
0.4 0.025 0
0.4125 0.025 0
0.4 0.0375 0
0.4125 0.0375 0
0.4125 0.025 0
0.425 0.025 0
0.4125 0.0375 0
0.425 0.0375 0
0.4 0.0375 0
0.4125 0.0375 0
0.4 0.05 0
0.4125 0.05 0
0.4125 0.0375 0
0.425 0.0375 0
0.4125 0.05 0
0.425 0.05 0
0.425 0.025 0
0.4375 0.025 0
0.425 0.0375 0
0.4375 0.0375 0
0.4375 0.025 0
0.45 0.025 0
0.4375 0.0375 0
0.45 0.0375 0
0.425 0.0375 0
0.4375 0.0375 0
0.425 0.05 0
0.4375 0.05 0
0.4375 0.0375 0
0.45 0.0375 0
0.4375 0.05 0
0.45 0.05 0
0.45 0 0
0.4625 0 0
0.45 0.0125 0
0.4625 0.0125 0
0.4625 0 0
0.475 0 0
0.4625 0.0125 0
0.475 0.0125 0
0.45 0.0125 0
0.4625 0.0125 0
0.45 0.025 0
0.4625 0.025 0
0.4625 0.0125 0
0.475 0.0125 0
0.4625 0.025 0
0.475 0.025 0
0.475 0 0
0.4875 0 0
0.475 0.0125 0
0.4875 0.0125 0
0.4875 0 0
0.5 0 0
0.4875 0.0125 0
0.5 0.0125 0
0.475 0.0125 0
0.4875 0.0125 0
0.475 0.025 0
0.4875 0.025 0
0.4875 0.0125 0
0.5 0.0125 0
0.4875 0.025 0
0.5 0.025 0
0.45 0.025 0
0.4625 0.025 0
0.45 0.0375 0
0.4625 0.0375 0
0.4625 0.025 0
0.475 0.025 0
0.4625 0.0375 0
0.475 0.0375 0
0.45 0.0375 0
0.4625 0.0375 0
0.45 0.05 0
0.4625 0.05 0
0.4625 0.0375 0
0.475 0.0375 0
0.4625 0.05 0
0.475 0.05 0
0.475 0.025 0
0.4875 0.025 0
0.475 0.0375 0
0.4875 0.0375 0
0.4875 0.025 0
0.5 0.025 0
0.4875 0.0375 0
0.5 0.0375 0
0.475 0.0375 0
0.4875 0.0375 0
0.475 0.05 0
0.4875 0.05 0
0.4875 0.0375 0
0.5 0.0375 0
0.4875 0.05 0
0.5 0.05 0
0.5 0 0
0.5125 0 0
0.5 0.0125 0
0.5125 0.0125 0
0.5125 0 0
0.525 0 0
0.5125 0.0125 0
0.525 0.0125 0
0.5 0.0125 0
0.5125 0.0125 0
0.5 0.025 0
0.5125 0.025 0
0.5125 0.0125 0
0.525 0.0125 0
0.5125 0.025 0
0.525 0.025 0
0.525 0 0
0.5375 0 0
0.525 0.0125 0
0.5375 0.0125 0
0.5375 0 0
0.55 0 0
0.5375 0.0125 0
0.55 0.0125 0
0.525 0.0125 0
0.5375 0.0125 0
0.525 0.025 0
0.5375 0.025 0
0.5375 0.0125 0
0.55 0.0125 0
0.5375 0.025 0
0.55 0.025 0
0.5 0.025 0
0.5125 0.025 0
0.5 0.0375 0
0.5125 0.0375 0
0.5125 0.025 0
0.525 0.025 0
0.5125 0.0375 0
0.525 0.0375 0
0.5 0.0375 0
0.5125 0.0375 0
0.5 0.05 0
0.5125 0.05 0
0.5125 0.0375 0
0.525 0.0375 0
0.5125 0.05 0
0.525 0.05 0
0.525 0.025 0
0.5375 0.025 0
0.525 0.0375 0
0.5375 0.0375 0
0.5375 0.025 0
0.55 0.025 0
0.5375 0.0375 0
0.55 0.0375 0
0.525 0.0375 0
0.5375 0.0375 0
0.525 0.05 0
0.5375 0.05 0
0.5375 0.0375 0
0.55 0.0375 0
0.5375 0.05 0
0.55 0.05 0
0.55 0 0
[...]
POINT_DATA 51200
SCALARS x_displacement double 1
LOOKUP_TABLE default
0 0.471548 0 0.311279 0.471548 0.829719 0.311279 0.643546 0 0.311279 0 0.25998 0.311279 0.643546 0.25998 0.531784 0.829719 1.14485 0.643546 0.950171 1.14485 1.43723 0.950171 1.23557 0.643546 0.950171 0.531784 0.806993 0.950171 1.23557 0.806993 1.07269 0 0.25998 0 0.226046 0.25998 0.531784 0.226046 0.461752 0 0.226046 0 0.201042 0.226046 0.461752 0.201042 0.409302 0.531784 0.806993 0.461752 0.702894 0.806993 1.07269 0.702894 0.943422 0.461752 0.702894 0.409302 0.623201 0.702894 0.943422 0.623201 0.839084 1.43723 1.71306 1.23557 1.50422 1.71306 1.97537 1.50422 1.75917 1.23557 1.50422 1.07269 1.32693 1.50422 1.75917 1.32693 1.57005 1.97537 2.22581 1.75917 2.00231 2.22581 2.46549 2.00231 2.23496 1.75917 2.00231 1.57005 1.80289 2.00231 2.23496 1.80289 2.02632 1.07269 1.32693 0.943422 1.17842 1.32693 1.57005 1.17842 1.40607 0.943422 1.17842 0.839084 1.05338 1.17842 1.40607 1.05338 1.26362 1.57005 1.80289 1.40607 1.62589 1.80289 2.02632 1.62589 1.83799 1.40607 1.62589 1.26362 1.46857 1.62589 1.83799 1.46857 1.66773 2.46549 2.69521 2.23496 2.45808 2.69521 2.91567 2.45808 2.67244 2.23496 2.45808 2.02632 2.24109 2.45808 2.67244 2.24109 2.44786 2.91567 3.12748 2.67244 2.87867 3.12748 3.3312 2.87867 3.07736 2.67244 2.87867 2.44786 2.6472 2.87867 3.07736 2.6472 2.83963 2.02632 2.24109 1.83799 2.04272 2.24109 2.44786 2.04272 2.24049 1.83799 2.04272 1.66773 1.86103 2.04272 2.24049 1.86103 2.04859 2.44786 2.6472 2.24049 2.43169 2.6472 2.83963 2.43169 2.61672 2.24049 2.43169 2.04859 2.23058 2.43169 2.61672 2.23058 2.40726 3.3312 3.5274 3.07736 3.26905 3.5274 3.71663 3.26905 3.45424 3.07736 3.26905 2.83963 3.02562 3.26905 3.45424 3.02562 3.20563 3.71663 3.89943 3.45424 3.63344 3.89943 4.07636 3.63344 3.80715 3.45424 3.63344 3.20563 3.38009 3.63344 3.80715 3.38009 3.54943 2.83963 3.02562 2.61672 2.79596 3.02562 3.20563 2.79596 2.96977 2.61672 2.79596 2.40726 2.57885 2.79596 2.96977 2.57885 2.74561 3.20563 3.38009 2.96977 3.13851 3.38009 3.54943 3.13851 3.30251 2.96977 3.13851 2.74561 2.90779 3.13851 3.30251 2.90779 3.06566 4.07636 4.24798 3.80715 3.97585 4.24798 4.41487 3.97585 4.14005 3.80715 3.97585 3.54943 3.71407 3.97585 4.14005 3.71407 3.87442 4.41487 4.57761 4.14005 4.30024 4.57761 4.7368 4.30024 4.45694 4.14005 4.30024 3.87442 4.03091 4.30024 4.45694 4.03091 4.18395 3.54943 3.71407 3.30251 3.46212 3.71407 3.87442 3.46212 3.61766 3.30251 3.46212 3.06566 3.21945 3.46212 3.61766 3.21945 3.36942 3.87442 4.03091 3.61766 3.76949 4.03091 4.18395 3.76949 3.91793 3.61766 3.76949 3.36942 3.51582 3.76949 3.91793 3.51582 3.65891 4.7368 4.89303 4.45694 4.61064 4.89303 5.04693 4.61064 4.76185 4.45694 4.61064 4.18395 4.33397 4.61064 4.76185 4.33397 4.48139 5.04693 5.19906 4.76185 4.91106 5.19906 5.34999 4.91106 5.05873 4.76185 4.91106 4.48139 4.62663 4.91106 5.05873 4.62663 4.77011 4.18395 4.33397 3.91793 4.06332 4.33397 4.48139 4.06332 4.20604 3.91793 4.06332 3.65891 3.79894 4.06332 4.20604 3.79894 3.9362 4.48139 4.62663 4.20604 4.34643 4.62663 4.77011 4.34643 4.48491 4.20604 4.34643 3.9362 4.07102 4.34643 4.48491 4.07102 4.20377 5.34999 5.50018 5.05873 5.20526 5.50018 5.65002 5.20526 5.35098 5.05873 5.20526 4.77011 4.91221 5.20526 5.35098 4.91221 5.05329 5.65002 5.79971 5.35098 5.49614 5.79971 5.94931 5.49614 5.64085 5.35098 5.49614 5.05329 5.19364 5.49614 5.64085 5.19364 5.33343 4.77011 4.91221 4.48491 4.62187 4.91221 5.05329 4.62187 4.75772 4.48491 4.62187 4.20377 4.33487 4.62187 4.75772 4.33487 4.46479 5.05329 5.19364 4.75772 4.8928 5.19364 5.33343 4.8928 5.02741 4.75772 4.8928 4.46479 4.59401 4.8928 5.02741 4.59401 4.72293 5.94931 6.09872 5.64085 5.78513 6.09872 6.2477 5.78513 5.92888 5.64085 5.78513 5.33343 5.47275 5.78513 5.92888 5.47275 5.61159 6.2477 6.39593 5.92888 6.07196 6.39593 6.54312 6.07196 6.2142 5.92888 6.07196 5.61159 5.74986 6.07196 6.2142 5.74986 5.88747 5.33343 5.47275 5.02741 5.16167 5.47275 5.61159 5.16167 5.29562 5.02741 5.16167 4.72293 4.85178 5.16167 5.29562 4.85178 4.9806 5.61159 5.74986 5.29562 5.42915 5.74986 5.88747 5.42915 5.56219 5.29562 5.42915 4.9806 5.10928 5.42915 5.56219 5.10928 5.23768 6.54312 6.68901 6.2142 6.35549 6.68901 6.83346 6.35549 6.49573 6.2142 6.35549 5.88747 6.02432 6.35549 6.49573 6.02432 6.16042 6.83346 6.97644 6.49573 6.63492 6.97644 7.11799 6.63492 6.77307 6.49573 6.63492 6.16042 6.29576 6.63492 6.77307 6.29576 6.43041 5.88747 6.02432 5.56219 5.69467 6.02432 6.16042 5.69467 5.82662 5.56219 5.69467 5.23768 5.36574 5.69467 5.82662 5.36574 5.49351 6.16042 6.29576 5.82662 5.95811 6.29576 6.43041 5.95811 6.08921 5.82662 5.95811 5.49351 5.62112 5.95811 6.08921 5.62112 5.7487 7.11799 7.25819 6.77307 6.91023 7.25819 7.39715 6.91023 7.04647 6.77307 6.91023 6.43041 6.5644 6.91023 7.04647 6.5644 6.69779 7.39715 7.53497 7.04647 7.18184 7.53497 7.67173 7.18184 7.31638 7.04647 7.18184 6.69779 6.83061 7.18184 7.31638 6.83061 6.96286 6.43041 6.5644 6.08921 6.22 6.5644 6.69779 6.22 6.35049 6.08921 6.22 5.7487 5.87629 6.22 6.35049 5.87629 6.00393 6.69779 6.83061 6.35049 6.48071 6.83061 6.96286 6.48071 6.61065 6.35049 6.48071 6.00393 6.13158 6.48071 6.61065 6.13158 6.25921 7.67173 7.80747 7.31638 7.45014 7.80747 7.94224 7.45014 7.58312 7.31638 7.45014 6.96286 7.09457 7.45014 7.58312 7.09457 7.22574 7.94224 8.07606 7.58312 7.71535 8.07606 8.20893 7.71535 7.84684 7.58312 7.71535 7.22574 7.35637 7.71535 7.84684 7.35637 7.48646 6.96286 7.09457 6.61065 6.74029 7.09457 7.22574 6.74029 6.86962 6.61065 6.74029 6.25921 6.38679 6.74029 6.86962 6.38679 6.51429 7.22574 7.35637 6.86962 6.99863 7.35637 7.48646 6.99863 7.12732 6.86962 6.99863 6.51429 6.64168 6.99863 7.12732 6.64168 6.76896 8.20893 8.34086 7.84684 7.97758 8.34086 8.47186 7.97758 8.10759 7.84684 7.97758 7.48646 7.61601 7.97758 8.10759 7.61601 7.74502 8.47186 8.60192 8.10759 8.23685 8.60192 8.73103 8.23685 8.36538 8.10759 8.23685 7.74502 7.8735 8.23685 8.36538 7.8735 8.00144 7.48646 7.61601 7.12732 7.25567 7.61601 7.74502 7.25567 7.38369 7.12732 7.25567 6.76896 6.89611 7.25567 7.38369 6.89611 7.02313 7.74502 7.8735 7.38369 7.51138 7.8735 8.00144 7.51138 7.63874 7.38369 7.51138 7.02313 7.15003 7.51138 7.63874 7.15003 7.2768 8.73103 8.85919 8.36538 8.49316 8.85919 8.9864 8.49316 8.6202 8.36538 8.49316 8.00144 8.12884 8.49316 8.6202 8.12884 8.25571 8.9864 9.11265 8.6202 8.74649 9.11265 9.23794 8.74649 8.87203 8.6202 8.74649 8.25571 8.38204 8.74649 8.87203 8.38204 8.50784 8.00144 8.12884 7.63874 7.76576 8.12884 8.25571 7.76576 7.89245 7.63874 7.76576 7.2768 7.40344 7.76576 7.89245 7.40344 7.52995 8.25571 8.38204 7.89245 8.01882 8.38204 8.50784 8.01882 8.14485 7.89245 8.01882 7.52995 7.65634 8.01882 8.14485 7.65634 7.7826 9.23794 9.36226 8.87203 8.99684 9.36226 9.48562 8.99684 9.1209 8.87203 8.99684 8.50784 8.6331 8.99684 9.1209 8.6331 8.75782 9.48562 9.60804 9.1209 9.24426 9.60804 9.72956 9.24426 9.36693 9.1209 9.24426 8.75782 8.88202 9.24426 9.36693 8.88202 9.00571 8.50784 8.6331 8.14485 8.27055 8.6331 8.75782 8.27055 8.3959 8.14485 8.27055 7.7826 7.90872 8.27055 8.3959 7.90872 8.03468 8.75782 8.88202 8.3959 8.52089 8.88202 9.00571 8.52089 8.6455 8.3959 8.52089 8.03468 8.16045 8.52089 8.6455 8.16045 8.28598 9.72956 9.85027 9.36693 9.48899 9.85027 9.9703 9.48899 9.61052 9.36693 9.48899 9.00571 9.12889 9.48899 9.61052 9.12889 9.25161 9.9703 10.0899 9.61052 9.73167 10.0899 10.2092 9.73167 9.85261 9.61052 9.73167 9.25161 9.37393 9.73167 9.85261 9.37393 9.49594 9.00571 9.12889 8.6455 8.7697 9.12889 9.25161 8.7697 8.89345 8.6455 8.7697 8.28598 8.41118 8.7697 8.89345 8.41118 8.53597 9.25161 9.37393 8.89345 9.01675 9.37393 9.49594 9.01675 9.13959 8.89345 9.01675 8.53597 8.66025 9.01675 9.13959 8.66025 8.78392 10.2092 10.3287 9.85261 9.97355 10.3287 10.4488 9.97355 10.0947 9.85261 9.97355 9.49594 9.61778 9.97355 10.0947 9.61778 9.73959 10.4488 10.5697 10.0947 10.2164 10.5697 10.6919 10.2164 10.3388 10.0947 10.2164 9.73959 9.86156 10.2164 10.3388 9.86156 9.98385 9.49594 9.61778 9.13959 9.26205 9.61778 9.73959 9.26205 9.38421 9.13959 9.26205 8.78392 8.90697 9.26205 9.38421 8.90697 9.02944 9.73959 9.86156 9.38421 9.50623 9.86156 9.98385 9.50623 9.62825 9.38421 9.50623 9.02944 9.15146 9.50623 9.62825 9.15146 9.27317 10.6919 10.8156 10.3388 10.462 10.8156 10.9407 10.462 10.5862 10.3388 10.462 9.98385 10.1066 10.462 10.5862 10.1066 10.2297 10.9407 11.0673 10.5862 10.7111 11.0673 11.1952 10.7111 10.8368 10.5862 10.7111 10.2297 10.3533 10.7111 10.8368 10.3533 10.4772 9.98385 10.1066 9.62825 9.75037 10.1066 10.2297 9.75037 9.87264 9.62825 9.75037 9.27317 9.39469 9.75037 9.87264 9.39469 9.51607 10.2297 10.3533 9.87264 9.99499 10.3533 10.4772 9.99499 10.1173 9.87264 9.99499 9.51607 9.63723 9.99499 10.1173 9.63723 9.75805 11.1952 11.324 10.8368 10.9629 11.324 11.4533 10.9629 11.0894 10.8368 10.9629 10.4772 10.6012 10.9629 11.0894 10.6012 10.7253 11.4533 11.5829 11.0894 11.2159 11.5829 11.7123 11.2159 11.3423 11.0894 11.2159 10.7253 10.8492 11.2159 11.3423 10.8492 10.9729 10.4772 10.6012 10.1173 10.2395 10.6012 10.7253 10.2395 10.3614 10.1173 10.2395 9.75805 9.8784 10.2395 10.3614 9.8784 9.99817 10.7253 10.8492 10.3614 10.483 10.8492 10.9729 10.483 10.6041 10.3614 10.483 9.99817 10.1173 10.483 10.6041 10.1173 10.2359 11.7123 11.8414 11.3423 11.4683 11.8414 11.97 11.4683 11.594 11.3423 11.4683 10.9729 11.0962 11.4683 11.594 11.0962 11.2191 11.97 12.0979 11.594 11.7191 12.0979 12.2251 11.7191 11.8437 11.594 11.7191 11.2191 11.3417 11.7191 11.8437 11.3417 11.4637 10.9729 11.0962 10.6041 10.7248 11.0962 11.2191 10.7248 10.8452 10.6041 10.7248 10.2359 10.3541 10.7248 10.8452 10.3541 10.4718 11.2191 11.3417 10.8452 10.9651 11.3417 11.4637 10.9651 11.0847 10.8452 10.9651 10.4718 10.5892 10.9651 11.0847 10.5892 10.7063 12.2251 12.3514 11.8437 11.9677 12.3514 12.477 11.9677 12.0911 11.8437 11.9677 11.4637 11.5854 11.9677 12.0911 11.5854 11.7066 12.477 12.6018 12.0911 12.214 12.6018 12.7259 12.214 12.3364 12.0911 12.214 11.7066 11.8273 12.214 12.3364 11.8273 11.9476 11.4637 11.5854 11.0847 11.204 11.5854 11.7066 11.204 11.3228 11.0847 11.204 10.7063 10.8231 11.204 11.3228 10.8231 10.9397 11.7066 11.8273 11.3228 11.4414 11.8273 11.9476 11.4414 11.5595 11.3228 11.4414 10.9397 11.056 11.4414 11.5595 11.056 11.1719 12.7259 12.8496 12.3364 12.4584 12.8496 12.9731 12.4584 12.5803 12.3364 12.4584 11.9476 12.0676 12.4584 12.5803 12.0676 12.1873 12.9731 13.0967 12.5803 12.7022 13.0967 13.221 12.7022 12.8245 12.5803 12.7022 12.1873 12.3068 12.7022 12.8245 12.3068 12.4263 11.9476 12.0676 11.5595 11.6772 12.0676 12.1873 11.6772 11.7944 11.5595 11.6772 11.1719 11.2872 11.6772 11.7944 11.2872 11.402 12.1873 12.3068 11.7944 11.9111 12.3068 12.4263 11.9111 12.0274 11.7944 11.9111 11.402 11.516 11.9111 12.0274 11.516 11.6291 13.221 13.3465 12.8245 12.9476 13.3465 13.474 12.9476 13.0718 12.8245 12.9476 12.4263 12.546 12.9476 13.0718 12.546 12.6662 13.474 13.6039 13.0718 13.1974 13.6039 13.7368 13.1974 13.3248 13.0718 13.1974 12.6662 12.7871 13.1974 13.3248 12.7871 12.9089 12.4263 12.546 12.0274 12.1435 12.546 12.6662 12.1435 12.2594 12.0274 12.1435 11.6291 11.7414 12.1435 12.2594 11.7414 11.853 12.6662 12.7871 12.2594 12.3754 12.7871 12.9089 12.3754 12.4918 12.2594 12.3754 11.853 11.9643 12.3754 12.4918 11.9643 12.0756 13.7368 13.8729 13.3248 13.4539 13.8729 14.012 13.4539 13.5845 13.3248 13.4539 12.9089 13.0315 13.4539 13.5845 13.0315 13.1549 14.012 14.1534 13.5845 13.716 14.1534 14.2962 13.716 13.8477 13.5845 13.716 13.1549 13.2785 13.716 13.8477 13.2785 13.4018 12.9089 13.0315 12.4918 12.6086 13.0315 13.1549 12.6086 12.7258 12.4918 12.6086 12.0756 12.1872 12.6086 12.7258 12.1872 12.299 13.1549 13.2785 12.7258 12.8431 13.2785 13.4018 12.8431 12.9599 12.7258 12.8431 12.299 12.411 12.8431 12.9599 12.411 12.5228 14.2962 14.4387 13.8477 13.9783 14.4387 14.579 13.9783 14.1063 13.8477 13.9783 13.4018 13.5238 13.9783 14.1063 13.5238 13.6434 14.579 14.7149 14.1063 14.2301 14.7149 14.8436 14.2301 14.3478 14.1063 14.2301 13.6434 13.7595 14.2301 14.3478 13.7595 13.8708 13.4018 13.5238 12.9599 13.0757 13.5238 13.6434 13.0757 13.1895 12.9599 13.0757 12.5228 12.6338 13.0757 13.1895 12.6338 12.7433 13.6434 13.7595 13.1895 13.3005 13.7595 13.8708 13.3005 13.4081 13.1895 13.3005 12.7433 12.8508 13.3005 13.4081 12.8508 12.9557 14.8436 14.9622 14.3478 14.4574 14.9622 15.0673 14.4574 14.557 14.3478 14.4574 13.8708 13.9761 14.4574 14.557 13.9761 14.0746 15.0673 15.1552 14.557 14.6445 15.1552 15.2222 14.6445 14.7178 14.557 14.6445 14.0746 14.1658 14.6445 14.7178 14.1658 14.2495 13.8708 13.9761 13.4081 13.5114 13.9761 14.0746 13.5114 13.6101 13.4081 13.5114 12.9557 13.0575 13.5114 13.6101 13.0575 13.156 14.0746 14.1658 13.6101 13.7043 14.1658 14.2495 13.7043 13.794 13.6101 13.7043 13.156 13.2508 13.7043 13.794 13.2508 13.3418 15.2222 15.2712 14.7178 14.7792 15.2712 15.313 14.7792 14.8383 14.7178 14.7792 14.2495 14.3266 14.7792 14.8383 14.3266 14.4018 15.313 15.3561 14.8383 14.9026 15.3561 15.4088 14.9026 14.9786 14.8383 14.9026 14.4018 14.4782 14.9026 14.9786 14.4782 14.558 14.2495 14.3266 13.794 13.8793 14.3266 14.4018 13.8793 13.9601 13.794 13.8793 13.3418 13.4282 13.8793 13.9601 13.4282 13.5094 14.4018 14.4782 13.9601 14.0367 14.4782 14.558 14.0367 14.1114 13.9601 14.0367 13.5094 13.5857 14.0367 14.1114 13.5857 13.6587 15.4088 15.4934 14.9786 15.0599 15.4934 15.5366 15.0599 15.1456 14.9786 15.0599 14.558 14.6362 15.0599 15.1456 14.6362 14.7135 15.5366 15.5619 15.1456 15.2373 15.5619 15.8174 15.2373 15.255 15.1456 15.2373 14.7135 14.786 15.2373 15.255 14.786 14.8565 14.558 14.6362 14.1114 14.1853 14.6362 14.7135 14.1853 14.2582 14.1114 14.1853 13.6587 13.7286 14.1853 14.2582 13.7286 13.7971 14.7135 14.786 14.2582 14.3272 14.786 14.8565 14.3272 14.3914 14.2582 14.3272 13.7971 13.8652 14.3272 14.3914 13.8652 13.932 15.8174 15.9894 15.255 15.3506 15.9894 16.1355 15.3506 15.5365 15.255 15.3506 14.8565 14.9064 15.3506 15.5365 14.9064 14.8561 16.1355 16.2963 15.5365 15.6745 16.2963 16.4369 15.6745 15.8194 15.5365 15.6745 14.8561 15.0644 15.6745 15.8194 15.0644 15.2268 14.8565 14.9064 14.3914 14.454 14.9064 14.8561 14.454 14.527 14.3914 14.454 13.932 14.0003 14.454 14.527 14.0003 14.0748 14.8561 15.0644 14.527 14.5753 15.0644 15.2268 14.5753 14.6391 14.527 14.5753 14.0748 14.1496 14.5753 14.6391 14.1496 14.1968 16.4369 16.5749 15.8194 15.964 16.5749 16.7094 15.964 16.0986 15.8194 15.964 15.2268 15.3677 15.964 16.0986 15.3677 15.5026 16.7094 16.836 16.0986 16.2261 16.836 16.956 16.2261 16.3481 16.0986 16.2261 15.5026 15.6277 16.2261 16.3481 15.6277 15.7502 15.2268 15.3677 14.6391 14.7921 15.3677 15.5026 14.7921 14.9129 14.6391 14.7921 14.1968 14.1549 14.7921 14.9129 14.1549 14.3139 15.5026 15.6277 14.9129 15.0351 15.6277 15.7502 15.0351 15.1644 14.9129 15.0351 14.3139 14.4665 15.0351 15.1644 14.4665 14.5878 16.956 17.0712 16.3481 16.466 17.0712 17.183 16.466 16.5802 16.3481 16.466 15.7502 15.8705 16.466 16.5802 15.8705 15.9865 17.183 17.2915 16.5802 16.6904 17.2915 17.3964 16.6904 16.7965 16.5802 16.6904 15.9865 16.0984 16.6904 16.7965 16.0984 16.206 15.7502 15.8705 15.1644 15.2853 15.8705 15.9865 15.2853 15.4031 15.1644 15.2853 14.5878 14.7112 15.2853 15.4031 14.7112 14.8322 15.9865 16.0984 15.4031 15.5168 16.0984 16.206 15.5168 15.6253 15.4031 15.5168 14.8322 14.9457 15.5168 15.6253 14.9457 15.0544 17.3964 17.4973 16.7965 16.8985 17.4973 17.594 16.8985 16.9962 16.7965 16.8985 16.206 16.3091 16.8985 16.9962 16.3091 16.408 17.594 17.6864 16.9962 17.0899 17.6864 17.7747 17.0899 17.1795 16.9962 17.0899 16.408 16.5027 17.0899 17.1795 16.5027 16.5934 16.206 16.3091 15.6253 15.7293 16.3091 16.408 15.7293 15.8289 15.6253 15.7293 15.0544 15.1586 15.7293 15.8289 15.1586 15.2586 16.408 16.5027 15.8289 15.9245 16.5027 16.5934 15.9245 16.0163 15.8289 15.9245 15.2586 15.3549 15.9245 16.0163 15.3549 15.4477 17.7747 17.8589 17.1795 17.2651 17.8589 17.9392 17.2651 17.3469 17.1795 17.2651 16.5934 16.6804 17.2651 17.3469 16.6804 16.7635 17.9392 18.0156 17.3469 17.4247 18.0156 18.088 17.4247 17.4987 17.3469 17.4247 16.7635 16.8429 17.4247 17.4987 16.8429 16.9184 16.5934 16.6804 16.0163 16.1045 16.6804 16.7635 16.1045 16.1891 16.0163 16.1045 15.4477 15.5372 16.1045 16.1891 15.5372 15.6233 16.7635 16.8429 16.1891 16.2699 16.8429 16.9184 16.2699 16.347 16.1891 16.2699 15.6233 15.7058 16.2699 16.347 15.7058 15.7844 18.088 18.1565 17.4987 17.5687 18.1565 18.2209 17.5687 17.6348 17.4987 17.5687 16.9184 16.9901 17.5687 17.6348 16.9901 17.0578 18.2209 18.2812 17.6348 17.6969 18.2812 18.3374 17.6969 17.755 17.6348 17.6969 17.0578 17.1217 17.6969 17.755 17.1217 17.1817 16.9184 16.9901 16.347 16.4203 16.9901 17.0578 16.4203 16.4897 16.347 16.4203 15.7844 15.8593 16.4203 16.4897 15.8593 15.9303 17.0578 17.1217 16.4897 16.5554 17.1217 17.1817 16.5554 16.6172 16.4897 16.5554 15.9303 15.9976 16.5554 16.6172 15.9976 16.0612 18.3374 18.3896 17.755 17.8092 18.3896 18.4376 17.8092 17.8595 17.755 17.8092 17.1817 17.2379 17.8092 17.8595 17.2379 17.2903 18.4376 18.4816 17.8595 17.9058 18.4816 18.5216 17.9058 17.9483 17.8595 17.9058 17.2903 17.339 17.9058 17.9483 17.339 17.3838 17.1817 17.2379 16.6172 16.6754 17.2379 17.2903 16.6754 16.7298 16.6172 16.6754 16.0612 16.1213 16.6754 16.7298 16.1213 16.1777 17.2903 17.339 16.7298 16.7807 17.339 17.3838 16.7807 16.8278 16.7298 16.7807 16.1777 16.2306 16.7807 16.8278 16.2306 16.28 18.5216 18.5576 17.9483 17.9869 18.5576 18.5896 17.9869 18.0217 17.9483 17.9869 17.3838 17.425 17.9869 18.0217 17.425 17.4625 18.5896 18.6177 18.0217 18.0529 18.6177 18.6419 18.0529 18.0803 18.0217 18.0529 17.4625 17.4964 18.0529 18.0803 17.4964 17.5268 17.3838 17.425 16.8278 16.8714 17.425 17.4625 16.8714 16.9115 16.8278 16.8714 16.28 16.3259 16.8714 16.9115 16.3259 16.3683 17.4625 17.4964 16.9115 16.948 17.4964 17.5268 16.948 16.9811 16.9115 16.948 16.3683 16.4073 16.948 16.9811 16.4073 16.4429 18.6419 18.6625 18.0803 18.1043 18.6625 18.6795 18.1043 18.1248 18.0803 18.1043 17.5268 17.5538 18.1043 18.1248 17.5538 17.5775 18.6795 18.6931 18.1248 18.142 18.6931 18.7034 18.142 18.1562 18.1248 18.142 17.5775 17.5981 18.142 18.1562 17.5981 17.6156 17.5268 17.5538 16.9811 17.0109 17.5538 17.5775 17.0109 17.0375 16.9811 17.0109 16.4429 16.4753 17.0109 17.0375 16.4753 16.5045 17.5775 17.5981 17.0375 17.061 17.5981 17.6156 17.061 17.0815 17.0375 17.061 16.5045 16.5306 17.061 17.0815 16.5306 16.5537 18.7034 18.7108 18.1562 18.1675 18.7108 18.7154 18.1675 18.1761 18.1562 18.1675 17.6156 17.6303 18.1675 18.1761 17.6303 17.6424 18.7154 18.7175 18.1761 18.1822 18.7175 18.7174 18.1822 18.1863 18.1761 18.1822 17.6424 17.652 18.1822 18.1863 17.652 17.6594 17.6156 17.6303 17.0815 17.0992 17.6303 17.6424 17.0992 17.1142 17.0815 17.0992 16.5537 16.574 17.0992 17.1142 16.574 16.5915 17.6424 17.652 17.1142 17.1267 17.652 17.6594 17.1267 17.137 17.1142 17.1267 16.5915 16.6065 17.1267 17.137 16.6065 16.6191 18.7174 18.7155 18.1863 18.1884 18.7155 18.7122 18.1884 18.189 18.1863 18.1884 17.6594 17.6649 18.1884 18.189 17.6649 17.6686 18.7122 18.7078 18.189 18.1884 18.7078 18.7028 18.1884 18.1868 18.189 18.1884 17.6686 17.671 18.1884 18.1868 17.671 17.6722 17.6594 17.6649 17.137 17.1451 17.6649 17.6686 17.1451 17.1515 17.137 17.1451 16.6191 16.6296 17.1451 17.1515 16.6296 16.638 17.6686 17.671 17.1515 17.1562 17.671 17.6722 17.1562 17.1596 17.1515 17.1562 16.638 16.6446 17.1562 17.1596 16.6446 16.6496 18.7028 18.6975 18.1868 18.1847 18.6975 18.6924 18.1847 18.1824 18.1868 18.1847 17.6722 17.6725 18.1847 18.1824 17.6725 17.6723 18.6924 18.6878 18.1824 18.1801 18.6878 18.6841 18.1801 18.1781 18.1824 18.1801 17.6723 17.6717 18.1801 18.1781 17.6717 17.671 17.6722 17.6725 17.1596 17.1618 17.6725 17.6723 17.1618 17.1631 17.1596 17.1618 16.6496 16.6533 17.1618 17.1631 16.6533 16.6558 17.6723 17.6717 17.1631 17.1638 17.6717 17.671 17.1638 17.1641 17.1631 17.1638 16.6558 16.6575 17.1638 17.1641 16.6575 16.6585 18.6841 18.6814 18.1781 18.1765 18.6814 18.68 18.1765 18.1755 18.1781 18.1765 17.671 17.6704 18.1765 18.1755 17.6704 17.67 18.68 18.6794 18.1755 18.175 18.6794 18.6794 18.175 18.175 18.1755 18.175 17.67 17.6699 1