# vtk DataFile Version 3.0
#This file was generated by the deal.II library on 2016/3/9 at 8:35:56
ASCII
DATASET UNSTRUCTURED_GRID

POINTS 512 double
0 0 0
0.125 0 0
0 0.125 0
0.125 0.125 0
0.125 0 0
0.25 0 0
0.125 0.125 0
0.25 0.125 0
0 0.125 0
0.125 0.125 0
0 0.25 0
0.125 0.25 0
0.125 0.125 0
0.25 0.125 0
0.125 0.25 0
0.25 0.25 0
0.25 0 0
0.375 0 0
0.25 0.125 0
0.375 0.125 0
0.375 0 0
0.5 0 0
0.375 0.125 0
0.5 0.125 0
0.25 0.125 0
0.375 0.125 0
0.25 0.25 0
0.375 0.25 0
0.375 0.125 0
0.5 0.125 0
0.375 0.25 0
0.5 0.25 0
0 0.25 0
0.125 0.25 0
0 0.375 0
0.125 0.375 0
0.125 0.25 0
0.25 0.25 0
0.125 0.375 0
0.25 0.375 0
0 0.375 0
0.125 0.375 0
0 0.5 0
0.125 0.5 0
0.125 0.375 0
0.25 0.375 0
0.125 0.5 0
0.25 0.5 0
0.25 0.25 0
0.375 0.25 0
0.25 0.375 0
0.375 0.375 0
0.375 0.25 0
0.5 0.25 0
0.375 0.375 0
0.5 0.375 0
0.25 0.375 0
0.375 0.375 0
0.25 0.5 0
0.375 0.5 0
0.375 0.375 0
0.5 0.375 0
0.375 0.5 0
0.5 0.5 0
0.5 0 0
0.625 0 0
0.5 0.125 0
0.625 0.125 0
0.625 0 0
0.75 0 0
0.625 0.125 0
0.75 0.125 0
0.5 0.125 0
0.625 0.125 0
0.5 0.25 0
0.625 0.25 0
0.625 0.125 0
0.75 0.125 0
0.625 0.25 0
0.75 0.25 0
0.75 0 0
0.875 0 0
0.75 0.125 0
0.875 0.125 0
0.875 0 0
1 0 0
0.875 0.125 0
1 0.125 0
0.75 0.125 0
0.875 0.125 0
0.75 0.25 0
0.875 0.25 0
0.875 0.125 0
1 0.125 0
0.875 0.25 0
1 0.25 0
0.5 0.25 0
0.625 0.25 0
0.5 0.375 0
0.625 0.375 0
0.625 0.25 0
0.75 0.25 0
0.625 0.375 0
0.75 0.375 0
0.5 0.375 0
0.625 0.375 0
0.5 0.5 0
0.625 0.5 0
0.625 0.375 0
0.75 0.375 0
0.625 0.5 0
0.75 0.5 0
0.75 0.25 0
0.875 0.25 0
0.75 0.375 0
0.875 0.375 0
0.875 0.25 0
1 0.25 0
0.875 0.375 0
1 0.375 0
0.75 0.375 0
0.875 0.375 0
0.75 0.5 0
0.875 0.5 0
0.875 0.375 0
1 0.375 0
0.875 0.5 0
1 0.5 0
1 0 0
1.125 0 0
1 0.125 0
1.125 0.125 0
1.125 0 0
1.25 0 0
1.125 0.125 0
1.25 0.125 0
1 0.125 0
1.125 0.125 0
1 0.25 0
1.125 0.25 0
1.125 0.125 0
1.25 0.125 0
1.125 0.25 0
1.25 0.25 0
1.25 0 0
1.375 0 0
1.25 0.125 0
1.375 0.125 0
1.375 0 0
1.5 0 0
1.375 0.125 0
1.5 0.125 0
1.25 0.125 0
1.375 0.125 0
1.25 0.25 0
1.375 0.25 0
1.375 0.125 0
1.5 0.125 0
1.375 0.25 0
1.5 0.25 0
1 0.25 0
1.125 0.25 0
1 0.375 0
1.125 0.375 0
1.125 0.25 0
1.25 0.25 0
1.125 0.375 0
1.25 0.375 0
1 0.375 0
1.125 0.375 0
1 0.5 0
1.125 0.5 0
1.125 0.375 0
1.25 0.375 0
1.125 0.5 0
1.25 0.5 0
1.25 0.25 0
1.375 0.25 0
1.25 0.375 0
1.375 0.375 0
1.375 0.25 0
1.5 0.25 0
1.375 0.375 0
1.5 0.375 0
1.25 0.375 0
1.375 0.375 0
1.25 0.5 0
1.375 0.5 0
1.375 0.375 0
1.5 0.375 0
1.375 0.5 0
1.5 0.5 0
1.5 0 0
1.625 0 0
1.5 0.125 0
1.625 0.125 0
1.625 0 0
1.75 0 0
1.625 0.125 0
1.75 0.125 0
1.5 0.125 0
1.625 0.125 0
1.5 0.25 0
1.625 0.25 0
1.625 0.125 0
1.75 0.125 0
1.625 0.25 0
1.75 0.25 0
1.75 0 0
1.875 0 0
1.75 0.125 0
1.875 0.125 0
1.875 0 0
2 0 0
1.875 0.125 0
2 0.125 0
1.75 0.125 0
1.875 0.125 0
1.75 0.25 0
1.875 0.25 0
1.875 0.125 0
2 0.125 0
1.875 0.25 0
2 0.25 0
1.5 0.25 0
1.625 0.25 0
1.5 0.375 0
1.625 0.375 0
1.625 0.25 0
1.75 0.25 0
1.625 0.375 0
1.75 0.375 0
1.5 0.375 0
1.625 0.375 0
1.5 0.5 0
1.625 0.5 0
1.625 0.375 0
1.75 0.375 0
1.625 0.5 0
1.75 0.5 0
1.75 0.25 0
1.875 0.25 0
1.75 0.375 0
1.875 0.375 0
1.875 0.25 0
2 0.25 0
1.875 0.375 0
2 0.375 0
1.75 0.375 0
1.875 0.375 0
1.75 0.5 0
1.875 0.5 0
1.875 0.375 0
2 0.375 0
1.875 0.5 0
2 0.5 0
0 0.5 0
0.125 0.5 0
0 0.625 0
0.125 0.625 0
0.125 0.5 0
0.25 0.5 0
0.125 0.625 0
0.25 0.625 0
0 0.625 0
0.125 0.625 0
0 0.75 0
0.125 0.75 0
0.125 0.625 0
0.25 0.625 0
0.125 0.75 0
0.25 0.75 0
0.25 0.5 0
0.375 0.5 0
0.25 0.625 0
0.375 0.625 0
0.375 0.5 0
0.5 0.5 0
0.375 0.625 0
0.5 0.625 0
0.25 0.625 0
0.375 0.625 0
0.25 0.75 0
0.375 0.75 0
0.375 0.625 0
0.5 0.625 0
0.375 0.75 0
0.5 0.75 0
0 0.75 0
0.125 0.75 0
0 0.875 0
0.125 0.875 0
0.125 0.75 0
0.25 0.75 0
0.125 0.875 0
0.25 0.875 0
0 0.875 0
0.125 0.875 0
0 1 0
0.125 1 0
0.125 0.875 0
0.25 0.875 0
0.125 1 0
0.25 1 0
0.25 0.75 0
0.375 0.75 0
0.25 0.875 0
0.375 0.875 0
0.375 0.75 0
0.5 0.75 0
0.375 0.875 0
0.5 0.875 0
0.25 0.875 0
0.375 0.875 0
0.25 1 0
0.375 1 0
0.375 0.875 0
0.5 0.875 0
0.375 1 0
0.5 1 0
0.5 0.5 0
0.625 0.5 0
0.5 0.625 0
0.625 0.625 0
0.625 0.5 0
0.75 0.5 0
0.625 0.625 0
0.75 0.625 0
0.5 0.625 0
0.625 0.625 0
0.5 0.75 0
0.625 0.75 0
0.625 0.625 0
0.75 0.625 0
0.625 0.75 0
0.75 0.75 0
0.75 0.5 0
0.875 0.5 0
0.75 0.625 0
0.875 0.625 0
0.875 0.5 0
1 0.5 0
0.875 0.625 0
1 0.625 0
0.75 0.625 0
0.875 0.625 0
0.75 0.75 0
0.875 0.75 0
0.875 0.625 0
1 0.625 0
0.875 0.75 0
1 0.75 0
0.5 0.75 0
0.625 0.75 0
0.5 0.875 0
0.625 0.875 0
0.625 0.75 0
0.75 0.75 0
0.625 0.875 0
0.75 0.875 0
0.5 0.875 0
0.625 0.875 0
0.5 1 0
0.625 1 0
0.625 0.875 0
0.75 0.875 0
0.625 1 0
0.75 1 0
0.75 0.75 0
0.875 0.75 0
0.75 0.875 0
0.875 0.875 0
0.875 0.75 0
1 0.75 0
0.875 0.875 0
1 0.875 0
0.75 0.875 0
0.875 0.875 0
0.75 1 0
0.875 1 0
0.875 0.875 0
1 0.875 0
0.875 1 0
1 1 0
1 0.5 0
1.125 0.5 0
1 0.625 0
1.125 0.625 0
1.125 0.5 0
1.25 0.5 0
1.125 0.625 0
1.25 0.625 0
1 0.625 0
1.125 0.625 0
1 0.75 0
1.125 0.75 0
1.125 0.625 0
1.25 0.625 0
1.125 0.75 0
1.25 0.75 0
1.25 0.5 0
1.375 0.5 0
1.25 0.625 0
1.375 0.625 0
1.375 0.5 0
1.5 0.5 0
1.375 0.625 0
1.5 0.625 0
1.25 0.625 0
1.375 0.625 0
1.25 0.75 0
1.375 0.75 0
1.375 0.625 0
1.5 0.625 0
1.375 0.75 0
1.5 0.75 0
1 0.75 0
1.125 0.75 0
1 0.875 0
1.125 0.875 0
1.125 0.75 0
1.25 0.75 0
1.125 0.875 0
1.25 0.875 0
1 0.875 0
1.125 0.875 0
1 1 0
1.125 1 0
1.125 0.875 0
1.25 0.875 0
1.125 1 0
1.25 1 0
1.25 0.75 0
1.375 0.75 0
1.25 0.875 0
1.375 0.875 0
1.375 0.75 0
1.5 0.75 0
1.375 0.875 0
1.5 0.875 0
1.25 0.875 0
1.375 0.875 0
1.25 1 0
1.375 1 0
1.375 0.875 0
1.5 0.875 0
1.375 1 0
1.5 1 0
1.5 0.5 0
1.625 0.5 0
1.5 0.625 0
1.625 0.625 0
1.625 0.5 0
1.75 0.5 0
1.625 0.625 0
1.75 0.625 0
1.5 0.625 0
1.625 0.625 0
1.5 0.75 0
1.625 0.75 0
1.625 0.625 0
1.75 0.625 0
1.625 0.75 0
1.75 0.75 0
1.75 0.5 0
1.875 0.5 0
1.75 0.625 0
1.875 0.625 0
1.875 0.5 0
2 0.5 0
1.875 0.625 0
2 0.625 0
1.75 0.625 0
1.875 0.625 0
1.75 0.75 0
1.875 0.75 0
1.875 0.625 0
2 0.625 0
1.875 0.75 0
2 0.75 0
1.5 0.75 0
1.625 0.75 0
1.5 0.875 0
1.625 0.875 0
1.625 0.75 0
1.75 0.75 0
1.625 0.875 0
1.75 0.875 0
1.5 0.875 0
1.625 0.875 0
1.5 1 0
1.625 1 0
1.625 0.875 0
1.75 0.875 0
1.625 1 0
1.75 1 0
1.75 0.75 0
1.875 0.75 0
1.75 0.875 0
1.875 0.875 0
1.875 0.75 0
2 0.75 0
1.875 0.875 0
2 0.875 0
1.75 0.875 0
1.875 0.875 0
1.75 1 0
1.875 1 0
1.875 0.875 0
2 0.875 0
1.875 1 0
2 1 0

CELLS 128 640
4	0	1	3	2
4	4	5	7	6
4	8	9	11	10
4	12	13	15	14
4	16	17	19	18
4	20	21	23	22
4	24	25	27	26
4	28	29	31	30
4	32	33	35	34
4	36	37	39	38
4	40	41	43	42
4	44	45	47	46
4	48	49	51	50
4	52	53	55	54
4	56	57	59	58
4	60	61	63	62
4	64	65	67	66
4	68	69	71	70
4	72	73	75	74
4	76	77	79	78
4	80	81	83	82
4	84	85	87	86
4	88	89	91	90
4	92	93	95	94
4	96	97	99	98
4	100	101	103	102
4	104	105	107	106
4	108	109	111	110
4	112	113	115	114
4	116	117	119	118
4	120	121	123	122
4	124	125	127	126
4	128	129	131	130
4	132	133	135	134
4	136	137	139	138
4	140	141	143	142
4	144	145	147	146
4	148	149	151	150
4	152	153	155	154
4	156	157	159	158
4	160	161	163	162
4	164	165	167	166
4	168	169	171	170
4	172	173	175	174
4	176	177	179	178
4	180	181	183	182
4	184	185	187	186
4	188	189	191	190
4	192	193	195	194
4	196	197	199	198
4	200	201	203	202
4	204	205	207	206
4	208	209	211	210
4	212	213	215	214
4	216	217	219	218
4	220	221	223	222
4	224	225	227	226
4	228	229	231	230
4	232	233	235	234
4	236	237	239	238
4	240	241	243	242
4	244	245	247	246
4	248	249	251	250
4	252	253	255	254
4	256	257	259	258
4	260	261	263	262
4	264	265	267	266
4	268	269	271	270
4	272	273	275	274
4	276	277	279	278
4	280	281	283	282
4	284	285	287	286
4	288	289	291	290
4	292	293	295	294
4	296	297	299	298
4	300	301	303	302
4	304	305	307	306
4	308	309	311	310
4	312	313	315	314
4	316	317	319	318
4	320	321	323	322
4	324	325	327	326
4	328	329	331	330
4	332	333	335	334
4	336	337	339	338
4	340	341	343	342
4	344	345	347	346
4	348	349	351	350
4	352	353	355	354
4	356	357	359	358
4	360	361	363	362
4	364	365	367	366
4	368	369	371	370
4	372	373	375	374
4	376	377	379	378
4	380	381	383	382
4	384	385	387	386
4	388	389	391	390
4	392	393	395	394
4	396	397	399	398
4	400	401	403	402
4	404	405	407	406
4	408	409	411	410
4	412	413	415	414
4	416	417	419	418
4	420	421	423	422
4	424	425	427	426
4	428	429	431	430
4	432	433	435	434
4	436	437	439	438
4	440	441	443	442
4	444	445	447	446
4	448	449	451	450
4	452	453	455	454
4	456	457	459	458
4	460	461	463	462
4	464	465	467	466
4	468	469	471	470
4	472	473	475	474
4	476	477	479	478
4	480	481	483	482
4	484	485	487	486
4	488	489	491	490
4	492	493	495	494
4	496	497	499	498
4	500	501	503	502
4	504	505	507	506
4	508	509	511	510

CELL_TYPES 128
 9 9 9 9 9 9 9 9 9 9 9 9 9 9 9 9 9 9 9 9 9 9 9 9 9 9 9 9 9 9 9 9 9 9 9 9 9 9 9 9 9 9 9 9 9 9 9 9 9 9 9 9 9 9 9 9 9 9 9 9 9 9 9 9 9 9 9 9 9 9 9 9 9 9 9 9 9 9 9 9 9 9 9 9 9 9 9 9 9 9 9 9 9 9 9 9 9 9 9 9 9 9 9 9 9 9 9 9 9 9 9 9 9 9 9 9 9 9 9 9 9 9 9 9 9 9 9 9
POINT_DATA 512
SCALARS x_displacement double 1
LOOKUP_TABLE default
0 4.27257 0 0.620232 4.27257 7.98597 0.620232 1.97318 0 0.620232 0 -1.97592 0.620232 1.97318 -1.97592 -2.96138 7.98597 11.0706 1.97318 3.8246 11.0706 13.5659 3.8246 5.93549 1.97318 3.8246 -2.96138 -2.08751 3.8246 5.93549 -2.08751 -0.170384 0 -1.97592 0 -4.59829 -1.97592 -2.96138 -4.59829 -7.30416 0 -4.59829 0 3.40736e-12 -4.59829 -7.30416 3.40736e-12 1.81264e-12 -2.96138 -2.08751 -7.30416 -4.59442 -2.08751 -0.170384 -4.59442 -1.674 -7.30416 -4.59442 1.81264e-12 5.0859e-12 -4.59442 -1.674 5.0859e-12 2.47485e-12 13.5659 15.9281 5.93549 7.95185 15.9281 18.6244 7.95185 9.88039 5.93549 7.95185 -0.170384 1.28951 7.95185 9.88039 1.28951 2.33767 18.6244 21.431 9.88039 11.7668 21.431 23.9873 11.7668 13.6848 9.88039 11.7668 2.33767 3.30757 11.7668 13.6848 3.30757 4.68724 -0.170384 1.28951 -1.674 -0.795956 1.28951 2.33767 -0.795956 -0.532556 -1.674 -0.795956 2.47485e-12 2.87128e-12 -0.795956 -0.532556 2.87128e-12 8.29447e-13 2.33767 3.30757 -0.532556 -0.903775 3.30757 4.68724 -0.903775 -2.09786 -0.532556 -0.903775 8.29447e-13 2.07339e-12 -0.903775 -2.09786 2.07339e-12 2.82004e-12 23.9873 26.1897 13.6848 15.8639 26.1897 28.153 15.8639 18.4068 13.6848 15.8639 4.68724 7.1171 15.8639 18.4068 7.1171 10.328 28.153 29.946 18.4068 21.0902 29.946 32.0119 21.0902 24.0951 18.4068 21.0902 10.328 13.6059 21.0902 24.0951 13.6059 16.9081 4.68724 7.1171 -2.09786 -0.62736 7.1171 10.328 -0.62736 3.38738 -2.09786 -0.62736 2.82004e-12 2.0262e-11 -0.62736 3.38738 2.0262e-11 5.91009e-12 10.328 13.6059 3.38738 6.48114 13.6059 16.9081 6.48114 8.89673 3.38738 6.48114 5.91009e-12 -3.27508e-12 6.48114 8.89673 -3.27508e-12 -1.82231e-12 32.0119 35.1552 24.0951 28.1091 35.1552 41.3163 28.1091 33.561 24.0951 28.1091 16.9081 20.5732 28.1091 33.561 20.5732 24.8495 41.3163 48.588 33.561 40.5583 48.588 53.561 40.5583 43.9896 33.561 40.5583 24.8495 28.9558 40.5583 43.9896 28.9558 30.7897 16.9081 20.5732 8.89673 11.0501 20.5732 24.8495 11.0501 13.2193 8.89673 11.0501 -1.82231e-12 -4.06843e-12 11.0501 13.2193 -4.06843e-12 -7.22515e-12 24.8495 28.9558 13.2193 15.5411 28.9558 30.7897 15.5411 16.2719 13.2193 15.5411 -7.22515e-12 -7.51567e-12 15.5411 16.2719 -7.51567e-12 -9.60665e-12 0 3.40736e-12 0 4.59829 3.40736e-12 1.81264e-12 4.59829 7.30416 0 4.59829 0 1.97592 4.59829 7.30416 1.97592 2.96138 1.81264e-12 5.0859e-12 7.30416 4.59442 5.0859e-12 2.47485e-12 4.59442 1.674 7.30416 4.59442 2.96138 2.08751 4.59442 1.674 2.08751 0.170384 0 1.97592 0 -0.620232 1.97592 2.96138 -0.620232 -1.97318 0 -0.620232 0 -4.27257 -0.620232 -1.97318 -4.27257 -7.98597 2.96138 2.08751 -1.97318 -3.8246 2.08751 0.170384 -3.8246 -5.93549 -1.97318 -3.8246 -7.98597 -11.0706 -3.8246 -5.93549 -11.0706 -13.5659 2.47485e-12 2.87128e-12 1.674 0.795956 2.87128e-12 8.29447e-13 0.795956 0.532556 1.674 0.795956 0.170384 -1.28951 0.795956 0.532556 -1.28951 -2.33767 8.29447e-13 2.07339e-12 0.532556 0.903775 2.07339e-12 2.82004e-12 0.903775 2.09786 0.532556 0.903775 -2.33767 -3.30757 0.903775 2.09786 -3.30757 -4.68724 0.170384 -1.28951 -5.93549 -7.95185 -1.28951 -2.33767 -7.95185 -9.88039 -5.93549 -7.95185 -13.5659 -15.9281 -7.95185 -9.88039 -15.9281 -18.6244 -2.33767 -3.30757 -9.88039 -11.7668 -3.30757 -4.68724 -11.7668 -13.6848 -9.88039 -11.7668 -18.6244 -21.431 -11.7668 -13.6848 -21.431 -23.9873 2.82004e-12 2.0262e-11 2.09786 0.62736 2.0262e-11 5.91009e-12 0.62736 -3.38738 2.09786 0.62736 -4.68724 -7.1171 0.62736 -3.38738 -7.1171 -10.328 5.91009e-12 -3.27508e-12 -3.38738 -6.48114 -3.27508e-12 -1.82231e-12 -6.48114 -8.89673 -3.38738 -6.48114 -10.328 -13.6059 -6.48114 -8.89673 -13.6059 -16.9081 -4.68724 -7.1171 -13.6848 -15.8639 -7.1171 -10.328 -15.8639 -18.4068 -13.6848 -15.8639 -23.9873 -26.1897 -15.8639 -18.4068 -26.1897 -28.153 -10.328 -13.6059 -18.4068 -21.0902 -13.6059 -16.9081 -21.0902 -24.0951 -18.4068 -21.0902 -28.153 -29.946 -21.0902 -24.0951 -29.946 -32.0119 -1.82231e-12 -4.06843e-12 -8.89673 -11.0501 -4.06843e-12 -7.22515e-12 -11.0501 -13.2193 -8.89673 -11.0501 -16.9081 -20.5732 -11.0501 -13.2193 -20.5732 -24.8495 -7.22515e-12 -7.51567e-12 -13.2193 -15.5411 -7.51567e-12 -9.60665e-12 -15.5411 -16.2719 -13.2193 -15.5411 -24.8495 -28.9558 -15.5411 -16.2719 -28.9558 -30.7897 -16.9081 -20.5732 -24.0951 -28.1091 -20.5732 -24.8495 -28.1091 -33.561 -24.0951 -28.1091 -32.0119 -35.1552 -28.1091 -33.561 -35.1552 -41.3163 -24.8495 -28.9558 -33.561 -40.5583 -28.9558 -30.7897 -40.5583 -43.9896 -33.561 -40.5583 -41.3163 -48.588 -40.5583 -43.9896 -48.588 -53.561 
SCALARS y_displacement double 1
LOOKUP_TABLE default
0 3.32546 0 2.40576 3.32546 9.09321 2.40576 8.33466 0 2.40576 0 2.5421 2.40576 8.33466 2.5421 8.05028 9.09321 16.7349 8.33466 16.0824 16.7349 24.8598 16.0824 24.3299 8.33466 16.0824 8.05028 15.9657 16.0824 24.3299 15.9657 24.5883 0 2.5421 0 3.45575 2.5421 8.05028 3.45575 8.04133 0 3.45575 0 4.85927 3.45575 8.04133 4.85927 8.27313 8.05028 15.9657 8.04133 17.4591 15.9657 24.5883 17.4591 27.1126 8.04133 17.4591 8.27313 23.5624 17.4591 27.1126 23.5624 28.8193 24.8598 32.859 24.3299 32.2393 32.859 41.1867 32.2393 40.3853 24.3299 32.2393 24.5883 32.1427 32.2393 40.3853 32.1427 39.4908 41.1867 50.6493 40.3853 49.8112 50.6493 61.4682 49.8112 60.7525 40.3853 49.8112 39.4908 48.58 49.8112 60.7525 48.58 59.8364 24.5883 32.1427 27.1126 32.8904 32.1427 39.4908 32.8904 38.322 27.1126 32.8904 28.8193 33.2711 32.8904 38.322 33.2711 37.905 39.4908 48.58 38.322 45.8108 48.58 59.8364 45.8108 57.8714 38.322 45.8108 37.905 43.9969 45.8108 57.8714 43.9969 53.6083 61.4682 73.1907 60.7525 72.6417 73.1907 85.0652 72.6417 84.6088 60.7525 72.6417 59.8364 72.1345 72.6417 84.6088 72.1345 84.2318 85.0652 96.3688 84.6088 95.8819 96.3688 107.362 95.8819 106.823 84.6088 95.8819 84.2318 95.3578 95.8819 106.823 95.3578 106.276 59.8364 72.1345 57.8714 71.7252 72.1345 84.2318 71.7252 83.9998 57.8714 71.7252 53.6083 71.8887 71.7252 83.9998 71.8887 84.4487 84.2318 95.3578 83.9998 94.9125 95.3578 106.276 94.9125 105.795 83.9998 94.9125 84.4487 94.8195 94.9125 105.795 94.8195 105.633 107.362 119.233 106.823 118.803 119.233 133.849 118.803 133.124 106.823 118.803 106.276 118.352 118.803 133.124 118.352 132.805 133.849 150.875 133.124 150.42 150.875 165.124 150.42 166.49 133.124 150.42 132.805 150.166 150.42 166.49 150.166 167.176 106.276 118.352 105.795 117.977 118.352 132.805 117.977 132.406 105.795 117.977 105.633 117.86 117.977 132.406 117.86 132.322 132.805 150.166 132.406 150.106 150.166 167.176 150.106 168.53 132.406 150.106 132.322 149.565 150.106 168.53 149.565 171.847 0 4.85927 0 3.45575 4.85927 8.27313 3.45575 8.04133 0 3.45575 0 2.5421 3.45575 8.04133 2.5421 8.05028 8.27313 23.5624 8.04133 17.4591 23.5624 28.8193 17.4591 27.1126 8.04133 17.4591 8.05028 15.9657 17.4591 27.1126 15.9657 24.5883 0 2.5421 0 2.40576 2.5421 8.05028 2.40576 8.33466 0 2.40576 0 3.32546 2.40576 8.33466 3.32546 9.09321 8.05028 15.9657 8.33466 16.0824 15.9657 24.5883 16.0824 24.3299 8.33466 16.0824 9.09321 16.7349 16.0824 24.3299 16.7349 24.8598 28.8193 33.2711 27.1126 32.8904 33.2711 37.905 32.8904 38.322 27.1126 32.8904 24.5883 32.1427 32.8904 38.322 32.1427 39.4908 37.905 43.9969 38.322 45.8108 43.9969 53.6083 45.8108 57.8714 38.322 45.8108 39.4908 48.58 45.8108 57.8714 48.58 59.8364 24.5883 32.1427 24.3299 32.2393 32.1427 39.4908 32.2393 40.3853 24.3299 32.2393 24.8598 32.859 32.2393 40.3853 32.859 41.1867 39.4908 48.58 40.3853 49.8112 48.58 59.8364 49.8112 60.7525 40.3853 49.8112 41.1867 50.6493 49.8112 60.7525 50.6493 61.4682 53.6083 71.8887 57.8714 71.7252 71.8887 84.4487 71.7252 83.9998 57.8714 71.7252 59.8364 72.1345 71.7252 83.9998 72.1345 84.2318 84.4487 94.8195 83.9998 94.9125 94.8195 105.633 94.9125 105.795 83.9998 94.9125 84.2318 95.3578 94.9125 105.795 95.3578 106.276 59.8364 72.1345 60.7525 72.6417 72.1345 84.2318 72.6417 84.6088 60.7525 72.6417 61.4682 73.1907 72.6417 84.6088 73.1907 85.0652 84.2318 95.3578 84.6088 95.8819 95.3578 106.276 95.8819 106.823 84.6088 95.8819 85.0652 96.3688 95.8819 106.823 96.3688 107.362 105.633 117.86 105.795 117.977 117.86 132.322 117.977 132.406 105.795 117.977 106.276 118.352 117.977 132.406 118.352 132.805 132.322 149.565 132.406 150.106 149.565 171.847 150.106 168.53 132.406 150.106 132.805 150.166 150.106 168.53 150.166 167.176 106.276 118.352 106.823 118.803 118.352 132.805 118.803 133.124 106.823 118.803 107.362 119.233 118.803 133.124 119.233 133.849 132.805 150.166 133.124 150.42 150.166 167.176 150.42 166.49 133.124 150.42 133.849 150.875 150.42 166.49 150.875 165.124 
