# vtk DataFile Version 3.0
#This file was generated by the deal.II library on 2016/2/10 at 17:07:29
ASCII
DATASET UNSTRUCTURED_GRID

POINTS 18152 double
0 0 0
0.05 0 0
0 0.05 0
0.05 0.05 0
0.05 0 0
0.1 0 0
0.05 0.05 0
0.1 0.05 0
0.1 0 0
0.15 0 0
0.1 0.05 0
0.15 0.05 0
0.15 0 0
0.2 0 0
0.15 0.05 0
0.2 0.05 0
0.2 0 0
0.25 0 0
0.2 0.05 0
0.25 0.05 0
0.25 0 0
0.3 0 0
0.25 0.05 0
0.3 0.05 0
0.3 0 0
0.35 0 0
0.3 0.05 0
0.35 0.05 0
0.35 0 0
0.4 0 0
0.35 0.05 0
0.4 0.05 0
0.4 0 0
0.45 0 0
0.4 0.05 0
0.45 0.05 0
0.45 0 0
0.5 0 0
0.45 0.05 0
0.5 0.05 0
0.5 0 0
0.55 0 0
0.5 0.05 0
0.55 0.05 0
0.55 0 0
0.6 0 0
0.55 0.05 0
0.6 0.05 0
0.6 0 0
0.65 0 0
0.6 0.05 0
0.65 0.05 0
0.65 0 0
0.7 0 0
0.65 0.05 0
0.7 0.05 0
0.7 0 0
0.75 0 0
0.7 0.05 0
0.75 0.05 0
0.75 0 0
0.8 0 0
0.75 0.05 0
0.8 0.05 0
0.8 0 0
0.85 0 0
0.8 0.05 0
0.85 0.05 0
0.85 0 0
0.9 0 0
0.85 0.05 0
0.9 0.05 0
0.9 0 0
0.95 0 0
0.9 0.05 0
0.95 0.05 0
0.95 0 0
1 0 0
0.95 0.05 0
1 0.05 0
1 0 0
1.05 0 0
1 0.05 0
1.05 0.05 0
1.05 0 0
1.1 0 0
1.05 0.05 0
1.1 0.05 0
1.1 0 0
1.15 0 0
1.1 0.05 0
1.15 0.05 0
1.15 0 0
1.2 0 0
1.15 0.05 0
1.2 0.05 0
1.2 0 0
1.25 0 0
1.2 0.05 0
1.25 0.05 0
1.45 0 0
1.5 0 0
1.45 0.05 0
1.5 0.05 0
1.5 0 0
1.55 0 0
1.5 0.05 0
1.55 0.05 0
1.55 0 0
1.6 0 0
1.55 0.05 0
1.6 0.05 0
1.6 0 0
1.65 0 0
1.6 0.05 0
1.65 0.05 0
1.65 0 0
1.7 0 0
1.65 0.05 0
1.7 0.05 0
1.7 0 0
1.75 0 0
1.7 0.05 0
1.75 0.05 0
1.75 0 0
1.8 0 0
1.75 0.05 0
1.8 0.05 0
1.8 0 0
1.85 0 0
1.8 0.05 0
1.85 0.05 0
1.85 0 0
1.9 0 0
1.85 0.05 0
1.9 0.05 0
1.9 0 0
1.95 0 0
1.9 0.05 0
1.95 0.05 0
1.95 0 0
2 0 0
1.95 0.05 0
2 0.05 0
0 0.05 0
0.05 0.05 0
0 0.1 0
0.05 0.1 0
0.05 0.05 0
0.1 0.05 0
0.05 0.1 0
0.1 0.1 0
0.1 0.05 0
0.15 0.05 0
0.1 0.1 0
0.15 0.1 0
0.15 0.05 0
0.2 0.05 0
0.15 0.1 0
0.2 0.1 0
0.2 0.05 0
0.25 0.05 0
0.2 0.1 0
0.25 0.1 0
0.25 0.05 0
0.3 0.05 0
0.25 0.1 0
0.3 0.1 0
0.3 0.05 0
0.35 0.05 0
0.3 0.1 0
0.35 0.1 0
0.35 0.05 0
0.4 0.05 0
0.35 0.1 0
0.4 0.1 0
1.15 0.05 0
1.2 0.05 0
1.15 0.1 0
1.2 0.1 0
1.2 0.05 0
1.25 0.05 0
1.2 0.1 0
1.25 0.1 0
1.25 0.05 0
1.3 0.05 0
1.25 0.1 0
1.3 0.1 0
1.55 0.05 0
1.6 0.05 0
1.55 0.1 0
1.6 0.1 0
1.6 0.05 0
1.65 0.05 0
1.6 0.1 0
1.65 0.1 0
1.65 0.05 0
1.7 0.05 0
1.65 0.1 0
1.7 0.1 0
1.7 0.05 0
1.75 0.05 0
1.7 0.1 0
1.75 0.1 0
1.75 0.05 0
1.8 0.05 0
1.75 0.1 0
1.8 0.1 0
1.8 0.05 0
1.85 0.05 0
1.8 0.1 0
1.85 0.1 0
1.85 0.05 0
1.9 0.05 0
1.85 0.1 0
1.9 0.1 0
1.9 0.05 0
1.95 0.05 0
1.9 0.1 0
1.95 0.1 0
1.95 0.05 0
2 0.05 0
1.95 0.1 0
2 0.1 0
0.15 0.1 0
0.2 0.1 0
0.15 0.15 0
0.2 0.15 0
0.2 0.1 0
0.25 0.1 0
0.2 0.15 0
0.25 0.15 0
0.25 0.1 0
0.3 0.1 0
0.25 0.15 0
0.3 0.15 0
0.3 0.1 0
0.35 0.1 0
0.3 0.15 0
0.35 0.15 0
1.65 0.1 0
1.7 0.1 0
1.65 0.15 0
1.7 0.15 0
1.7 0.1 0
1.75 0.1 0
1.7 0.15 0
1.75 0.15 0
1.75 0.1 0
1.8 0.1 0
1.75 0.15 0
1.8 0.15 0
1.8 0.1 0
1.85 0.1 0
1.8 0.15 0
1.85 0.15 0
1.85 0.1 0
1.9 0.1 0
1.85 0.15 0
1.9 0.15 0
1.9 0.1 0
1.95 0.1 0
1.9 0.15 0
1.95 0.15 0
1.95 0.1 0
2 0.1 0
1.95 0.15 0
2 0.15 0
0.25 0.15 0
0.3 0.15 0
0.25 0.2 0
0.3 0.2 0
0.3 0.15 0
0.35 0.15 0
0.3 0.2 0
0.35 0.2 0
0.35 0.15 0
0.4 0.15 0
0.35 0.2 0
0.4 0.2 0
0.65 0.15 0
0.7 0.15 0
0.65 0.2 0
0.7 0.2 0
0.7 0.15 0
0.75 0.15 0
0.7 0.2 0
0.75 0.2 0
0.75 0.15 0
0.8 0.15 0
0.75 0.2 0
0.8 0.2 0
0.8 0.15 0
0.85 0.15 0
0.8 0.2 0
0.85 0.2 0
0.85 0.15 0
0.9 0.15 0
0.85 0.2 0
0.9 0.2 0
0.9 0.15 0
0.95 0.15 0
0.9 0.2 0
0.95 0.2 0
0.95 0.15 0
1 0.15 0
0.95 0.2 0
1 0.2 0
1 0.15 0
1.05 0.15 0
1 0.2 0
1.05 0.2 0
1.75 0.15 0
1.8 0.15 0
1.75 0.2 0
1.8 0.2 0
1.8 0.15 0
1.85 0.15 0
1.8 0.2 0
1.85 0.2 0
1.85 0.15 0
1.9 0.15 0
1.85 0.2 0
1.9 0.2 0
1.9 0.15 0
1.95 0.15 0
1.9 0.2 0
1.95 0.2 0
1.95 0.15 0
2 0.15 0
1.95 0.2 0
2 0.2 0
0.35 0.2 0
0.4 0.2 0
0.35 0.25 0
0.4 0.25 0
0.4 0.2 0
0.45 0.2 0
0.4 0.25 0
0.45 0.25 0
0.8 0.2 0
0.85 0.2 0
0.8 0.25 0
0.85 0.25 0
0.85 0.2 0
0.9 0.2 0
0.85 0.25 0
0.9 0.25 0
0.9 0.2 0
0.95 0.2 0
0.9 0.25 0
0.95 0.25 0
0.95 0.2 0
1 0.2 0
0.95 0.25 0
1 0.25 0
1.8 0.2 0
1.85 0.2 0
1.8 0.25 0
1.85 0.25 0
1.85 0.2 0
1.9 0.2 0
1.85 0.25 0
1.9 0.25 0
1.9 0.2 0
1.95 0.2 0
1.9 0.25 0
1.95 0.25 0
1.95 0.2 0
2 0.2 0
1.95 0.25 0
2 0.25 0
0 0.25 0
0.05 0.25 0
0 0.3 0
0.05 0.3 0
0.05 0.25 0
0.1 0.25 0
0.05 0.3 0
0.1 0.3 0
0.1 0.25 0
0.15 0.25 0
0.1 0.3 0
0.15 0.3 0
0.45 0.25 0
0.5 0.25 0
0.45 0.3 0
0.5 0.3 0
0.5 0.25 0
0.55 0.25 0
0.5 0.3 0
0.55 0.3 0
0.9 0.25 0
0.95 0.25 0
0.9 0.3 0
0.95 0.3 0
0.95 0.25 0
1 0.25 0
0.95 0.3 0
1 0.3 0
1.25 0.25 0
1.3 0.25 0
1.25 0.3 0
1.3 0.3 0
1.3 0.25 0
1.35 0.25 0
1.3 0.3 0
1.35 0.3 0
1.9 0.25 0
1.95 0.25 0
1.9 0.3 0
1.95 0.3 0
1.95 0.25 0
2 0.25 0
1.95 0.3 0
2 0.3 0
0 0.3 0
0.05 0.3 0
0 0.35 0
0.05 0.35 0
0.05 0.3 0
0.1 0.3 0
0.05 0.35 0
0.1 0.35 0
0.1 0.3 0
0.15 0.3 0
0.1 0.35 0
0.15 0.35 0
0.15 0.3 0
0.2 0.3 0
0.15 0.35 0
0.2 0.35 0
0.2 0.3 0
0.25 0.3 0
0.2 0.35 0
0.25 0.35 0
0.6 0.3 0
0.65 0.3 0
0.6 0.35 0
0.65 0.35 0
1.2 0.3 0
1.25 0.3 0
1.2 0.35 0
1.25 0.35 0
1.25 0.3 0
1.3 0.3 0
1.25 0.35 0
1.3 0.35 0
1.3 0.3 0
1.35 0.3 0
1.3 0.35 0
1.35 0.35 0
1.35 0.3 0
1.4 0.3 0
1.35 0.35 0
1.4 0.35 0
0 0.35 0
0.05 0.35 0
0 0.4 0
0.05 0.4 0
0.05 0.35 0
0.1 0.35 0
0.05 0.4 0
0.1 0.4 0
0.1 0.35 0
0.15 0.35 0
0.1 0.4 0
0.15 0.4 0
0.15 0.35 0
0.2 0.35 0
0.15 0.4 0
0.2 0.4 0
0.2 0.35 0
0.25 0.35 0
0.2 0.4 0
0.25 0.4 0
0.25 0.35 0
0.3 0.35 0
0.25 0.4 0
0.3 0.4 0
0.3 0.35 0
0.35 0.35 0
0.3 0.4 0
0.35 0.4 0
0.7 0.35 0
0.75 0.35 0
0.7 0.4 0
0.75 0.4 0
0.75 0.35 0
0.8 0.35 0
0.75 0.4 0
0.8 0.4 0
1.2 0.35 0
1.25 0.35 0
1.2 0.4 0
1.25 0.4 0
1.25 0.35 0
1.3 0.35 0
1.25 0.4 0
1.3 0.4 0
1.3 0.35 0
1.35 0.35 0
1.3 0.4 0
1.35 0.4 0
1.35 0.35 0
1.4 0.35 0
1.35 0.4 0
1.4 0.4 0
1.4 0.35 0
1.45 0.35 0
1.4 0.4 0
1.45 0.4 0
1.45 0.35 0
1.5 0.35 0
1.45 0.4 0
1.5 0.4 0
0 0.4 0
0.05 0.4 0
0 0.45 0
0.05 0.45 0
0.05 0.4 0
0.1 0.4 0
0.05 0.45 0
0.1 0.45 0
0.1 0.4 0
0.15 0.4 0
0.1 0.45 0
0.15 0.45 0
0.15 0.4 0
0.2 0.4 0
0.15 0.45 0
0.2 0.45 0
0.2 0.4 0
0.25 0.4 0
0.2 0.45 0
0.25 0.45 0
0.25 0.4 0
0.3 0.4 0
0.25 0.45 0
0.3 0.45 0
0.3 0.4 0
0.35 0.4 0
0.3 0.45 0
0.35 0.45 0
0.35 0.4 0
0.4 0.4 0
0.35 0.45 0
0.4 0.45 0
0.4 0.4 0
0.45 0.4 0
0.4 0.45 0
0.45 0.45 0
0.75 0.4 0
0.8 0.4 0
0.75 0.45 0
0.8 0.45 0
0.8 0.4 0
0.85 0.4 0
0.8 0.45 0
0.85 0.45 0
0.85 0.4 0
0.9 0.4 0
0.85 0.45 0
0.9 0.45 0
1.15 0.4 0
1.2 0.4 0
1.15 0.45 0
1.2 0.45 0
1.2 0.4 0
1.25 0.4 0
1.2 0.45 0
1.25 0.45 0
1.25 0.4 0
1.3 0.4 0
1.25 0.45 0
1.3 0.45 0
1.3 0.4 0
1.35 0.4 0
1.3 0.45 0
1.35 0.45 0
1.35 0.4 0
1.4 0.4 0
1.35 0.45 0
1.4 0.45 0
1.4 0.4 0
1.45 0.4 0
1.4 0.45 0
1.45 0.45 0
1.45 0.4 0
1.5 0.4 0
1.45 0.45 0
1.5 0.45 0
1.5 0.4 0
1.55 0.4 0
1.5 0.45 0
1.55 0.45 0
1.55 0.4 0
1.6 0.4 0
1.55 0.45 0
1.6 0.45 0
1.85 0.4 0
1.9 0.4 0
1.85 0.45 0
1.9 0.45 0
0 0.45 0
0.05 0.45 0
0 0.5 0
0.05 0.5 0
0.05 0.45 0
0.1 0.45 0
0.05 0.5 0
0.1 0.5 0
0.1 0.45 0
0.15 0.45 0
0.1 0.5 0
0.15 0.5 0
0.15 0.45 0
0.2 0.45 0
0.15 0.5 0
0.2 0.5 0
0.2 0.45 0
0.25 0.45 0
0.2 0.5 0
0.25 0.5 0
0.25 0.45 0
0.3 0.45 0
0.25 0.5 0
0.3 0.5 0
0.3 0.45 0
0.35 0.45 0
0.3 0.5 0
0.35 0.5 0
0.35 0.45 0
0.4 0.45 0
0.35 0.5 0
0.4 0.5 0
0.4 0.45 0
0.45 0.45 0
0.4 0.5 0
0.45 0.5 0
0.45 0.45 0
0.5 0.45 0
0.45 0.5 0
0.5 0.5 0
0.5 0.45 0
0.55 0.45 0
0.5 0.5 0
0.55 0.5 0
0.8 0.45 0
0.85 0.45 0
0.8 0.5 0
0.85 0.5 0
0.85 0.45 0
0.9 0.45 0
0.85 0.5 0
0.9 0.5 0
0.9 0.45 0
0.95 0.45 0
0.9 0.5 0
0.95 0.5 0
0.95 0.45 0
1 0.45 0
0.95 0.5 0
1 0.5 0
1.15 0.45 0
1.2 0.45 0
1.15 0.5 0
1.2 0.5 0
1.2 0.45 0
1.25 0.45 0
1.2 0.5 0
1.25 0.5 0
1.25 0.45 0
1.3 0.45 0
1.25 0.5 0
1.3 0.5 0
1.3 0.45 0
1.35 0.45 0
1.3 0.5 0
1.35 0.5 0
1.35 0.45 0
1.4 0.45 0
1.35 0.5 0
1.4 0.5 0
1.4 0.45 0
1.45 0.45 0
1.4 0.5 0
1.45 0.5 0
1.45 0.45 0
1.5 0.45 0
1.45 0.5 0
1.5 0.5 0
1.5 0.45 0
1.55 0.45 0
1.5 0.5 0
1.55 0.5 0
1.55 0.45 0
1.6 0.45 0
1.55 0.5 0
1.6 0.5 0
1.6 0.45 0
1.65 0.45 0
1.6 0.5 0
1.65 0.5 0
1.9 0.45 0
1.95 0.45 0
1.9 0.5 0
1.95 0.5 0
1.95 0.45 0
2 0.45 0
1.95 0.5 0
2 0.5 0
0 0.5 0
0.05 0.5 0
0 0.55 0
0.05 0.55 0
0.05 0.5 0
0.1 0.5 0
0.05 0.55 0
0.1 0.55 0
0.1 0.5 0
0.15 0.5 0
0.1 0.55 0
0.15 0.55 0
0.15 0.5 0
0.2 0.5 0
0.15 0.55 0
0.2 0.55 0
0.2 0.5 0
0.25 0.5 0
0.2 0.55 0
0.25 0.55 0
0.25 0.5 0
0.3 0.5 0
0.25 0.55 0
0.3 0.55 0
0.3 0.5 0
0.35 0.5 0
0.3 0.55 0
0.35 0.55 0
0.35 0.5 0
0.4 0.5 0
0.35 0.55 0
0.4 0.55 0
0.4 0.5 0
0.45 0.5 0
0.4 0.55 0
0.45 0.55 0
0.45 0.5 0
0.5 0.5 0
0.45 0.55 0
0.5 0.55 0
0.5 0.5 0
0.55 0.5 0
0.5 0.55 0
0.55 0.55 0
0.8 0.5 0
0.85 0.5 0
0.8 0.55 0
0.85 0.55 0
0.85 0.5 0
0.9 0.5 0
0.85 0.55 0
0.9 0.55 0
0.9 0.5 0
0.95 0.5 0
0.9 0.55 0
0.95 0.55 0
0.95 0.5 0
1 0.5 0
0.95 0.55 0
1 0.55 0
1.15 0.5 0
1.2 0.5 0
1.15 0.55 0
1.2 0.55 0
1.2 0.5 0
1.25 0.5 0
1.2 0.55 0
1.25 0.55 0
1.25 0.5 0
1.3 0.5 0
1.25 0.55 0
1.3 0.55 0
1.3 0.5 0
1.35 0.5 0
1.3 0.55 0
1.35 0.55 0
1.35 0.5 0
1.4 0.5 0
1.35 0.55 0
1.4 0.55 0
1.4 0.5 0
1.45 0.5 0
1.4 0.55 0
1.45 0.55 0
1.45 0.5 0
1.5 0.5 0
1.45 0.55 0
1.5 0.55 0
1.5 0.5 0
1.55 0.5 0
1.5 0.55 0
1.55 0.55 0
1.55 0.5 0
1.6 0.5 0
1.55 0.55 0
1.6 0.55 0
1.6 0.5 0
1.65 0.5 0
1.6 0.55 0
1.65 0.55 0
1.9 0.5 0
1.95 0.5 0
1.9 0.55 0
1.95 0.55 0
1.95 0.5 0
2 0.5 0
1.95 0.55 0
2 0.55 0
0 0.55 0
0.05 0.55 0
0 0.6 0
0.05 0.6 0
0.05 0.55 0
0.1 0.55 0
0.05 0.6 0
0.1 0.6 0
0.1 0.55 0
0.15 0.55 0
0.1 0.6 0
0.15 0.6 0
0.15 0.55 0
0.2 0.55 0
0.15 0.6 0
0.2 0.6 0
0.2 0.55 0
0.25 0.55 0
0.2 0.6 0
0.25 0.6 0
0.25 0.55 0
0.3 0.55 0
0.25 0.6 0
0.3 0.6 0
0.3 0.55 0
0.35 0.55 0
0.3 0.6 0
0.35 0.6 0
0.35 0.55 0
0.4 0.55 0
0.35 0.6 0
0.4 0.6 0
0.4 0.55 0
0.45 0.55 0
0.4 0.6 0
0.45 0.6 0
0.75 0.55 0
0.8 0.55 0
0.75 0.6 0
0.8 0.6 0
0.8 0.55 0
0.85 0.55 0
0.8 0.6 0
0.85 0.6 0
0.85 0.55 0
0.9 0.55 0
0.85 0.6 0
0.9 0.6 0
1.15 0.55 0
1.2 0.55 0
1.15 0.6 0
1.2 0.6 0
1.2 0.55 0
1.25 0.55 0
1.2 0.6 0
1.25 0.6 0
1.25 0.55 0
1.3 0.55 0
1.25 0.6 0
1.3 0.6 0
1.3 0.55 0
1.35 0.55 0
1.3 0.6 0
1.35 0.6 0
1.35 0.55 0
1.4 0.55 0
1.35 0.6 0
1.4 0.6 0
1.4 0.55 0
1.45 0.55 0
1.4 0.6 0
1.45 0.6 0
1.45 0.55 0
1.5 0.55 0
1.45 0.6 0
1.5 0.6 0
1.5 0.55 0
1.55 0.55 0
1.5 0.6 0
1.55 0.6 0
1.55 0.55 0
1.6 0.55 0
1.55 0.6 0
1.6 0.6 0
1.85 0.55 0
1.9 0.55 0
1.85 0.6 0
1.9 0.6 0
0 0.6 0
0.05 0.6 0
0 0.65 0
0.05 0.65 0
0.05 0.6 0
0.1 0.6 0
0.05 0.65 0
0.1 0.65 0
0.1 0.6 0
[...]
POINT_DATA 18152
SCALARS x_displacement double 1
LOOKUP_TABLE default
0 1.33672 0 0.781122 1.33672 2.35248 0.781122 1.6075 2.35248 3.20269 1.6075 2.33994 3.20269 3.93504 2.33994 2.99197 3.93504 4.58044 2.99197 3.5782 4.58044 5.17262 3.5782 4.11367 5.17262 5.74832 4.11367 4.6154 5.74832 6.33756 4.6154 5.10445 6.33756 6.94714 5.10445 5.59655 6.94714 7.5688 5.59655 6.08786 7.5688 8.185 6.08786 6.5879 8.185 8.78067 6.5879 7.09993 8.78067 9.34125 7.09993 7.63494 9.34125 9.86596 7.63494 8.19199 9.86596 10.3724 8.19199 8.76804 10.3724 10.882 8.76804 9.3528 10.882 11.4017 9.3528 9.93946 11.4017 11.9328 9.93946 10.5273 11.9328 12.4753 10.5273 11.1162 12.4753 13.0308 11.1162 11.7035 13.0308 13.6185 11.7035 12.2729 13.6185 14.2774 12.2729 12.8132 14.2774 14.9993 12.8132 13.3286 14.9993 15.6861 13.3286 13.8004 15.6861 16.2038 13.8004 14.1995 18.2227 16.5132 15.3078 16.0301 16.5132 17.8995 16.0301 15.8178 17.8995 18.4382 15.8178 16.1399 18.4382 18.7747 16.1399 16.4572 18.7747 18.9986 16.4572 16.7149 18.9986 19.1412 16.7149 16.8799 19.1412 19.2111 16.8799 17.0112 19.2111 19.2365 17.0112 17.0903 19.2365 19.2299 17.0903 17.1291 19.2299 19.2145 17.1291 17.142 19.2145 19.2085 17.142 17.1456 0 0.781122 0 0.535146 0.781122 1.6075 0.535146 1.09797 1.6075 2.33994 1.09797 1.66511 2.33994 2.99197 1.66511 2.1956 2.99197 3.5782 2.1956 2.68822 3.5782 4.11367 2.68822 3.1358 4.11367 4.6154 3.1358 3.52771 4.6154 5.10445 3.52771 3.88341 13.3286 13.8004 11.7761 12.0616 13.8004 14.1995 12.0616 12.3443 14.1995 14.5279 12.3443 12.597 15.8178 16.1399 13.7889 14.0649 16.1399 16.4572 14.0649 14.3992 16.4572 16.7149 14.3992 14.5183 16.7149 16.8799 14.5183 14.7577 16.8799 17.0112 14.7577 14.9227 17.0112 17.0903 14.9227 15.0303 17.0903 17.1291 15.0303 15.0866 17.1291 17.142 15.0866 15.1065 17.142 17.1456 15.1065 15.1113 1.66511 2.1956 1.06923 1.48871 2.1956 2.68822 1.48871 1.89407 2.68822 3.1358 1.89407 2.26766 3.1358 3.52771 2.26766 2.59218 14.3992 14.5183 11.8214 12.5344 14.5183 14.7577 12.5344 12.7697 14.7577 14.9227 12.7697 12.9454 14.9227 15.0303 12.9454 13.0622 15.0303 15.0866 13.0622 13.1317 15.0866 15.1065 13.1317 13.1503 15.1065 15.1113 13.1503 13.1476 1.89407 2.26766 1.16455 1.49765 2.26766 2.59218 1.49765 1.81315 2.59218 2.85746 1.81315 2.12808 4.28151 4.28217 2.86952 3.24136 4.28217 5.53007 3.24136 3.65422 5.53007 6.14754 3.65422 4.81931 6.14754 6.94357 4.81931 5.48029 6.94357 7.60438 5.48029 6.28873 7.60438 8.16753 6.28873 7.43473 8.16753 9.78446 7.43473 8.00471 9.78446 10.2212 8.00471 8.65107 12.7697 12.9454 10.8716 11.0239 12.9454 13.0622 11.0239 11.1976 13.0622 13.1317 11.1976 11.2802 13.1317 13.1503 11.2802 11.2993 13.1503 13.1476 11.2993 11.2818 1.81315 2.12808 1.08303 1.39429 2.12808 2.43272 1.39429 1.70773 4.81931 5.48029 3.69692 4.57873 5.48029 6.28873 4.57873 5.55386 6.28873 7.43473 5.55386 5.15678 7.43473 8.00471 5.15678 6.516 11.0239 11.1976 9.31105 9.41362 11.1976 11.2802 9.41362 9.5371 11.2802 11.2993 9.5371 9.57027 11.2993 11.2818 9.57027 9.52396 0 0.00619135 0 0.0689013 0.00619135 0.265277 0.0689013 0.0418164 0.265277 -0.0355467 0.0418164 0.0885833 1.70773 2.01843 0.973314 1.28944 2.01843 2.33121 1.28944 1.60541 5.55386 5.15678 4.03361 4.6185 5.15678 6.516 4.6185 5.39068 7.00958 7.09943 5.51199 5.53716 7.09943 7.0543 5.53716 5.55659 9.5371 9.57027 7.93423 7.94833 9.57027 9.52396 7.94833 7.85277 0 0.0689013 0 0.0274143 0.0689013 0.0418164 0.0274143 0.0421918 0.0418164 0.0885833 0.0421918 0.0282158 0.0885833 0.0716626 0.0282158 0.0135372 0.0716626 0.0177567 0.0135372 0.00705572 1.92413 2.24755 1.18772 1.49641 5.47863 5.51199 3.99004 4.04665 5.51199 5.53716 4.04665 4.10442 5.53716 5.55659 4.10442 4.17882 5.55659 5.67761 4.17882 4.23085 0 0.0274143 0 0.0177317 0.0274143 0.0421918 0.0177317 0.0181055 0.0421918 0.0282158 0.0181055 0.00897455 0.0282158 0.0135372 0.00897455 -0.0068926 0.0135372 0.00705572 -0.0068926 -0.0292084 0.00705572 -0.00480188 -0.0292084 -0.0699135 -0.00480188 -0.0549522 -0.0699135 -0.15502 1.79821 2.10726 1.02974 1.28729 2.10726 2.43285 1.28729 1.55342 3.99004 4.04665 2.55094 2.64707 4.04665 4.10442 2.64707 2.71302 4.10442 4.17882 2.71302 2.7665 4.17882 4.23085 2.7665 2.8049 4.23085 4.27402 2.8049 2.83387 4.27402 4.66865 2.83387 2.70458 0 0.0177317 0 0.0074554 0.0177317 0.0181055 0.0074554 0.00709872 0.0181055 0.00897455 0.00709872 0.000783913 0.00897455 -0.0068926 0.000783913 -0.00988355 -0.0068926 -0.0292084 -0.00988355 -0.0264214 -0.0292084 -0.0699135 -0.0264214 -0.04945 -0.0699135 -0.15502 -0.04945 -0.0598623 -0.15502 -0.161587 -0.0598623 -0.0700733 -0.161587 -0.149671 -0.0700733 -0.0721537 1.28729 1.55342 0.539207 0.729119 1.55342 1.80789 0.729119 0.879671 1.80789 2.03426 0.879671 0.989008 2.40417 2.55094 1.06096 1.21493 2.55094 2.64707 1.21493 1.29889 2.64707 2.71302 1.29889 1.3457 2.71302 2.7665 1.3457 1.37569 2.7665 2.8049 1.37569 1.39238 2.8049 2.83387 1.39238 1.37979 2.83387 2.70458 1.37979 1.39585 2.70458 2.77528 1.39585 1.40019 2.77528 2.78681 1.40019 1.40792 3.85728 4.12003 1.86301 2.06027 0 0.0074554 0 1.79135e-11 0.0074554 0.00709872 1.79135e-11 1.95123e-12 0.00709872 0.000783913 1.95123e-12 -4.22202e-11 0.000783913 -0.00988355 -4.22202e-11 -7.91466e-11 -0.00988355 -0.0264214 -7.91466e-11 -1.00939e-10 -0.0264214 -0.04945 -1.00939e-10 -1.13474e-10 -0.04945 -0.0598623 -1.13474e-10 -1.12757e-10 -0.0598623 -0.0700733 -1.12757e-10 -9.28539e-11 -0.0700733 -0.0721537 -9.28539e-11 -6.68161e-11 -0.0721537 -0.122864 -6.68161e-11 -5.8656e-11 -0.122864 -0.0929032 -5.8656e-11 -7.08114e-11 0.729119 0.879671 1.25521e-12 1.21823e-12 0.879671 0.989008 1.21823e-12 1.01102e-12 0.989008 1.04048 1.01102e-12 7.7566e-13 1.04048 1.01993 7.7566e-13 6.87416e-13 1.06096 1.21493 9.84039e-09 5.19339e-09 1.21493 1.29889 5.19339e-09 2.91332e-09 1.29889 1.3457 2.91332e-09 2.01631e-09 1.3457 1.37569 2.01631e-09 8.17278e-10 1.37569 1.39238 8.17278e-10 5.58553e-10 1.39238 1.37979 5.58553e-10 3.58389e-10 1.37979 1.39585 3.58389e-10 7.0496e-10 1.39585 1.40019 7.0496e-10 9.78852e-10 1.40019 1.40792 9.78852e-10 9.51674e-10 1.40792 1.40136 9.51674e-10 1.47759e-10 2.06027 2.26502 6.83637e-13 1.14889e-13 2.26502 2.26969 1.14889e-13 -1.771e-13 0 1.79135e-11 0 -0.0074554 1.79135e-11 1.95123e-12 -0.0074554 -0.00709872 1.95123e-12 -4.22202e-11 -0.00709872 -0.000783913 -4.22202e-11 -7.91466e-11 -0.000783913 0.00988355 -7.91466e-11 -1.00939e-10 0.00988355 0.0264214 -1.00939e-10 -1.13474e-10 0.0264214 0.04945 -1.13474e-10 -1.12757e-10 0.04945 0.0598623 -1.12757e-10 -9.28539e-11 0.0598623 0.0700733 -9.28539e-11 -6.68161e-11 0.0700733 0.0721537 -6.68161e-11 -5.8656e-11 0.0721537 0.122864 -5.8656e-11 -7.08114e-11 0.122864 0.0929032 1.25521e-12 1.21823e-12 -0.729119 -0.879671 1.21823e-12 1.01102e-12 -0.879671 -0.989008 1.01102e-12 7.7566e-13 -0.989008 -1.04048 7.7566e-13 6.87416e-13 -1.04048 -1.01993 9.84039e-09 5.19339e-09 -1.06096 -1.21493 5.19339e-09 2.91332e-09 -1.21493 -1.29889 2.91332e-09 2.01631e-09 -1.29889 -1.3457 2.01631e-09 8.17278e-10 -1.3457 -1.37569 8.17278e-10 5.58553e-10 -1.37569 -1.39238 5.58553e-10 3.58389e-10 -1.39238 -1.37979 3.58389e-10 7.0496e-10 -1.37979 -1.39585 7.0496e-10 9.78852e-10 -1.39585 -1.40019 9.78852e-10 9.51674e-10 -1.40019 -1.40792 9.51674e-10 1.47759e-10 -1.40792 -1.40136 6.83637e-13 1.14889e-13 -2.06027 -2.26502 1.14889e-13 -1.771e-13 -2.26502 -2.26969 0 -0.0074554 0 -0.0177317 -0.0074554 -0.00709872 -0.0177317 -0.0181055 -0.00709872 -0.000783913 -0.0181055 -0.00897455 -0.000783913 0.00988355 -0.00897455 0.0068926 0.00988355 0.0264214 0.0068926 0.0292084 0.0264214 0.04945 0.0292084 0.0699135 0.04945 0.0598623 0.0699135 0.15502 0.0598623 0.0700733 0.15502 0.161587 0.0700733 0.0721537 0.161587 0.149671 -0.539207 -0.729119 -1.28729 -1.55342 -0.729119 -0.879671 -1.55342 -1.80789 -0.879671 -0.989008 -1.80789 -2.03426 -1.06096 -1.21493 -2.40417 -2.55094 -1.21493 -1.29889 -2.55094 -2.64707 -1.29889 -1.3457 -2.64707 -2.71302 -1.3457 -1.37569 -2.71302 -2.7665 -1.37569 -1.39238 -2.7665 -2.8049 -1.39238 -1.37979 -2.8049 -2.83387 -1.37979 -1.39585 -2.83387 -2.70458 -1.39585 -1.40019 -2.70458 -2.77528 -1.40019 -1.40792 -2.77528 -2.78681 -1.86301 -2.06027 -3.85728 -4.12003 0 -0.0177317 0 -0.0274143 -0.0177317 -0.0181055 -0.0274143 -0.0421918 -0.0181055 -0.00897455 -0.0421918 -0.0282158 -0.00897455 0.0068926 -0.0282158 -0.0135372 0.0068926 0.0292084 -0.0135372 -0.00705572 0.0292084 0.0699135 -0.00705572 0.00480188 0.0699135 0.15502 0.00480188 0.0549522 -1.02974 -1.28729 -1.79821 -2.10726 -1.28729 -1.55342 -2.10726 -2.43285 -2.55094 -2.64707 -3.99004 -4.04665 -2.64707 -2.71302 -4.04665 -4.10442 -2.71302 -2.7665 -4.10442 -4.17882 -2.7665 -2.8049 -4.17882 -4.23085 -2.8049 -2.83387 -4.23085 -4.27402 -2.83387 -2.70458 -4.27402 -4.66865 0 -0.0274143 0 -0.0689013 -0.0274143 -0.0421918 -0.0689013 -0.0418165 -0.0421918 -0.0282158 -0.0418165 -0.0885833 -0.0282158 -0.0135372 -0.0885833 -0.0716626 -0.0135372 -0.00705572 -0.0716626 -0.0177567 -1.18772 -1.49641 -1.92413 -2.24755 -3.99004 -4.04665 -5.47863 -5.51199 -4.04665 -4.10442 -5.51199 -5.53716 -4.10442 -4.17882 -5.53716 -5.55659 -4.17882 -4.23085 -5.55659 -5.67761 0 -0.0689013 0 -0.00619135 -0.0689013 -0.0418165 -0.00619135 -0.265277 -0.0418165 -0.0885833 -0.265277 0.0355467 -0.973314 -1.28944 -1.70773 -2.01843 -1.28944 -1.60541 -2.01843 -2.33121 -4.03361 -4.6185 -5.55386 -5.15678 -4.6185 -5.39068 -5.15678 -6.516 -5.51199 -5.53716 -7.00958 -7.09943 -5.53716 -5.55659 -7.09943 -7.0543 -7.93423 -7.94833 -9.5371 -9.57027 -7.94833 -7.85277 -9.57027 -9.52396 -1.08303 -1.39429 -1.81315 -2.12808 -1.39429 -1.70773 -2.12808 -2.43272 -3.69692 -4.57873 -4.81931 -5.48029 -4.57873 -5.55386 -5.48029 -6.28873 -5.55386 -5.15678 -6.28873 -7.43473 -5.15678 -6.516 -7.43473 -8.00471 -9.31105 -9.41362 -11.0239 -11.1976 -9.41362 -9.5371 -11.1976 -11.2802 -9.5371 -9.57027 -11.2802 -11.2993 -9.57027 -9.52396 -11.2993 -11.2818 -1.16455 -1.49765 -1.89407 -2.26766 -1.49765 -1.81315 -2.26766 -2.59218 -1.81315 -2.12808 -2.59218 -2.85746 -2.86952 -3.24136 -4.28151 -4.28217 -3.24136 -3.65422 -4.28217 -5.53007 -3.65422 -4.81931 -5.53007 -6.14754 -4.81931 -5.48029 -6.14754 -6.94357 -5.48029 -6.28873 -6.94357 -7.60438 -6.28873 -7.43473 -7.60438 -8.16753 -7.43473 -8.00471 -8.16753 -9.78446 -8.00471 -8.65107 -9.78446 -10.2212 -10.8716 -11.0239 -12.7697 -12.9454 -11.0239 -11.1976 -12.9454 -13.0622 -11.1976 -11.2802 -13.0622 -13.1317 -11.2802 -11.2993 -13.1317 -13.1503 -11.2993 -11.2818 -13.1503 -13.1476 -1.06923 -1.48871 -1.66511 -2.1956 -1.48871 -1.89407 -2.1956 -2.68822 -1.89407 -2.26766 -2.68822 -3.1358 -2.26766 -2.59218 -3.1358 -3.52771 -11.8214 -12.5344 -14.3992 -14.5183 -12.5344 -12.7697 -14.5183 -14.7577 -12.7697 -12.9454 -14.7577 -14.9227 -12.9454 -13.0622 -14.9227 -15.0303 -13.0622 -13.1317 -15.0303 -15.0866 -13.1317 -13.1503 -15.0866 -15.1065 -13.1503 -13.1476 -15.1065 -15.1113 0 -0.535146 0 -0.781122 -0.535146 -1.09797 -0.781122 -1.6075 -1.09797 -1.66511 -1.6075 -2.33994 -1.66511 -2.1956 -2.33994 -2.99197 -2.1956 -2.68822 -2.99197 -3.5782 -2.68822 -3.1358 -3.5782 -4.11367 -3.1358 -3.52771 -4.11367 -4.6154 -3.52771 -3.88341 -4.6154 -5.10445 -11.7761 -12.0616 -13.3286 -13.8004 -12.0616 -12.3443 -13.8004 -14.1995 -12.3443 -12.597 -14.1995 -14.5279 -13.7889 -14.0649 -15.8178 -16.1399 -14.0649 -14.3992 -16.1399 -16.4572 -14.3992 -14.5183 -16.4572 -16.7149 -14.5183 -14.7577 -16.7149 -16.8799 -14.7577 -14.9227 -16.8799 -17.0112 -14.9227 -15.0303 -17.0112 -17.0903 -15.0303 -15.0866 -17.0903 -17.1291 -15.0866 -15.1065 -17.1291 -17.142 -15.1065 -15.1113 -17.142 -17.1456 0 -0.781122 0 -1.33672 -0.781122 -1.6075 -1.33672 -2.35248 -1.6075 -2.33994 -2.35248 -3.20269 -2.33994 -2.99197 -3.20269 -3.93504 -2.99197 -3.5782 -3.93504 -4.58044 -3.5782 -4.11367 -4.58044 -5.17262 -4.11367 -4.6154 -5.17262 -5.74832 -4.6154 -5.10445 -5.74832 -6.33756 -5.10445 -5.59655 -6.33756 -6.94714 -5.59655 -6.08786 -6.94714 -7.5688 -6.08786 -6.5879 -7.5688 -8.185 -6.5879 -7.09993 -8.185 -8.78067 -7.09993 -7.63494 -8.78067 -9.34125 -7.63494 -8.19199 -9.34125 -9.86596 -8.19199 -8.76804 -9.86596 -10.3724 -8.76804 -9.3528 -10.3724 -10.882 -9.3528 -9.93946 -10.882 -11.4017 -9.93946 -10.5273 -11.4017 -11.9328 -10.5273 -11.1162 -11.9328 -12.4753 -11.1162 -11.7035 -12.4753 -13.0308 -11.7035 -12.2729 -13.0308 -13.6185 -12.2729 -12.8132 -13.6185 -14.2774 -12.8132 -13.3286 -14.2774 -14.9993 -13.3286 -13.8004 -14.9993 -15.6861 -13.8004 -14.1995 -15.6861 -16.2038 -15.3078 -16.0301 -18.2227 -16.5132 -16.0301 -15.8178 -16.5132 -17.8995 -15.8178 -16.1399 -17.8995 -18.4382 -16.1399 -16.4572 -18.4382 -18.7747 -16.4572 -16.7149 -18.7747 -18.9986 -16.7149 -16.8799 -18.9986 -19.1412 -16.8799 -17.0112 -19.1412 -19.2111 -17.0112 -17.0903 -19.2111 -19.2365 -17.0903 -17.1291 -19.2365 -19.2299 -17.1291 -17.142 -19.2299 -19.2145 -17.142 -17.1456 -19.2145 -19.2085 17.2062 16.3332 15.6821 16.0208 5.59655 5.84221 4.91873 5.13003 5.84221 6.08786 5.13003 5.34334 4.91873 5.13003 4.23818 4.41733 5.13003 5.34334 4.41733 4.59522 6.08786 6.33788 5.34334 5.56059 6.33788 6.5879 5.56059 5.78459 5.34334 5.56059 4.59522 4.77227 5.56059 5.78459 4.77227 4.95866 6.5879 6.84392 5.78459 6.01245 6.84392 7.09993 6.01245 6.25088 7.09993 7.36743 6.25088 6.49926 7.36743 7.63494 6.49926 6.76712 7.63494 7.91346 6.76712 7.04838 7.91346 8.19199 7.04838 7.34669 8.19199 8.48001 7.34669 7.65296 8.48001 8.76804 7.65296 7.96359 8.76804 9.06042 7.96359 8.27463 9.06042 9.3528 8.27463 8.58569 9.3528 9.64613 8.58569 8.89633 9.64613 9.93946 8.89633 9.206 9.93946 10.2334 9.206 9.51467 10.2334 10.5273 9.51467 9.82206 10.5273 10.8217 9.82206 10.1284 10.8217 11.1162 10.1284 10.4333 11.1162 11.4098 10.4333 10.7371 11.4098 11.7035 10.7371 11.0379 11.7035 11.9882 11.0379 11.3341 11.9882 12.2729 11.3341 11.6146 12.2729 12.5431 11.6146 11.8747 12.5431 12.8132 11.8747 12.1038 13.8231 13.9407 12.8414 12.9663 15.3078 15.669 14.3028 14.2051 15.669 16.0301 14.2051 14.5735 0 0.267573 0 0.200624 0.267573 0.535146 0.200624 0.415079 0.535146 0.816557 0.415079 0.647024 0.816557 1.09797 0.647024 0.885423 0.415079 0.647024 0.301251 0.486408 0.647024 0.885423 0.486408 0.662391 4.93633 5.1645 4.28151 4.28184 5.1645 5.56573 4.28184 4.28217 5.56573 5.97095 4.28217 4.90612 5.97095 6.33251 4.90612 5.53007 6.33251 6.66216 5.53007 5.83881 6.66216 7.0308 5.83881 6.14754 7.0308 7.38229 6.14754 6.54556 7.38229 7.722 6.54556 6.94357 7.722 8.05883 6.94357 7.27398 8.05883 8.38733 7.27398 7.60438 8.38733 8.71246 7.60438 7.88596 8.71246 9.03005 7.88596 8.16753 9.03005 9.35373 8.16753 8.976 9.35373 9.7786 8.976 9.78446 9.7786 10.3251 9.78446 10.0028 10.3251 10.5202 10.0028 10.2212 10.5202 10.7338 10.2212 9.81339 11.6315 11.7761 10.9729 11.038 12.3443 12.4707 11.3776 11.484 12.4707 12.597 11.484 11.6015 13.7889 13.9269 12.7532 13.0129 13.9269 14.0649 13.0129 13.2809 13.0129 13.2809 12.0422 11.9716 0 0.267501 0 -0.122407 0.861028 1.06923 0.588983 0.77259 1.06923 1.27897 0.77259 0.958489 1.27897 1.48871 0.958489 1.15067 3.57742 3.84936 3.17399 3.10904 3.84936 3.6934 3.10904 3.31334 3.6934 3.79544 3.31334 3.59467 10.2212 9.81339 9.43611 9.78819 9.43611 9.78819 8.65107 8.58215 10.23 10.2576 9.42115 9.43975 9.42115 9.43975 8.62868 8.63359 10.8649 11.0005 9.8799 10.0184 11.0005 11.1333 10.0184 10.1554 10.6979 10.8281 9.72839 9.86101 10.8281 10.961 9.86101 9.99199 12.6112 11.8214 11.1423 11.5373 0.0755779 0.246949 0.265277 0.114865 0.246949 0.314217 0.114865 -0.0355467 1.16455 1.3311 0.820662 0.976382 1.3311 1.49765 0.976382 1.1326 2.37966 2.53133 2.01843 2.17482 2.53133 2.68269 2.17482 2.33121 2.86952 3.05544 3.02092 3.38802 3.05544 3.24136 3.38802 3.60601 7.76727 7.75631 7.01684 7.00958 7.76964 8.1375 7.09943 7.07686 8.1375 8.20396 7.07686 7.0543 9.32273 9.46002 8.35517 8.48755 9.30823 9.43829 8.34361 8.48108 10.8258 10.8716 9.88425 10.1383 0.0273322 0.261118 0.0716626 0.0447097 0.261118 0.365071 0.0447097 0.0177567 1.08303 1.23866 0.727974 0.876812 1.23866 1.39429 0.876812 1.02895 2.29075 2.45414 1.92413 2.08584 2.45414 2.6179 2.08584 2.24755 3.84933 3.69692 3.30479 3.37786 3.69692 4.13783 3.37786 3.72916 4.13783 4.57873 3.72916 4.11515 6.516 6.94186 5.95334 6.2023 5.95334 6.2023 5.39068 5.53688 7.05174 7.06495 6.28511 6.28784 6.28511 6.28784 5.51358 5.52882 6.3114 6.57498 5.67761 5.65264 7.93173 8.07102 6.97617 7.10905 7.91939 8.05375 6.96392 7.10493 9.31105 9.36233 8.24751 8.33297 9.36233 9.41362 8.33297 8.63341 -0.0292 0.11062 -0.00480188 -0.029877 0.11062 0.238155 -0.029877 -0.0549522 0.973314 1.13138 0.601416 0.760105 1.13138 1.28944 0.760105 0.913099 2.57938 2.73679 2.18701 2.35389 2.73679 2.91886 2.35389 2.53054 2.18701 2.35389 1.79821 1.95273 2.35389 2.53054 1.95273 2.10726 2.53054 2.69371 2.10726 2.27005 2.69371 2.86612 2.27005 2.43285 4.03361 4.32606 3.56022 3.48075 4.32606 4.6185 3.48075 4.0409 5.43677 5.47863 4.68091 4.73433 4.68091 4.73433 3.95147 3.99004 4.88423 5.14751 4.66865 3.72407 6.42658 6.55923 5.46212 5.59642 6.55923 6.6924 5.59642 5.73028 6.27909 6.41678 5.31015 5.44298 6.41678 6.55641 5.44298 5.58019 7.93423 7.94128 6.93829 7.05625 7.94128 7.94833 7.05625 7.20632 0.243005 0.107665 -0.626935 -0.123245 -0.626935 -0.123245 -0.161587 -0.155629 -0.123245 0.144559 -0.155629 -0.149671 0.144559 0.155457 -0.149671 -0.188014 1.02786 1.18772 0.669785 0.817414 2.7646 2.93172 2.28437 2.43201 2.28437 2.43201 1.80789 1.92107 2.43201 2.57068 1.92107 2.03426 2.57068 2.71128 2.03426 2.14242 3.95928 3.96852 3.1921 3.19066 3.1921 3.19066 2.41905 2.44154 4.4737 4.39046 3.06864 3.39012 3.06864 3.39012 2.77528 2.78104 3.39012 3.71374 2.78104 2.78681 4.86561 5.00238 3.85728 3.98865 5.00238 5.13783 3.98865 4.12003 6.65264 6.28349 5.47602 5.57784 -0.228915 0.210893 -0.0929032 -0.263288 0.894675 1.02974 0.538837 0.662135 2.35523 2.40417 1.64805 1.73256 1.64805 1.73256 0.974088 1.06096 1.99872 2.17651 1.40136 1.37798 3.49531 3.61423 2.53749 2.64147 3.28507 3.34739 2.26502 2.26735 3.34739 3.35856 2.26735 2.26969 -0.331147 0.0809899 7.79755e-12 4.96016e-13 0.0809899 0.0668408 4.96016e-13 1.33052e-12 1.01993 1.01455 0.509964 0.458037 0.509964 0.458037 6.87416e-13 8.09613e-13 0.526373 0.67211 8.71468e-11 -9.0681e-12 1.77086 1.86301 0.829921 0.905022 7.79755e-12 4.96016e-13 0.331147 -0.0809899 4.96016e-13 1.33052e-12 -0.0809899 -0.0668408 6.87416e-13 8.09613e-13 -0.509964 -0.458037 -0.509964 -0.458037 -1.01993 -1.01455 8.71468e-11 -9.0681e-12 -0.526373 -0.67211 -0.829921 -0.905022 -1.77086 -1.86301 0.0929032 0.263288 0.228915 -0.210893 -0.538837 -0.662135 -0.894675 -1.02974 -0.974088 -1.06096 -1.64805 -1.73256 -1.64805 -1.73256 -2.35523 -2.40417 -1.40136 -1.37798 -1.99872 -2.17651 -2.53749 -2.64147 -3.49531 -3.61423 -2.26502 -2.26735 -3.28507 -3.34739 -2.26735 -2.26969 -3.34739 -3.35856 0.161587 0.155629 0.626935 0.123245 0.155629 0.149671 0.123245 -0.144559 0.626935 0.123245 -0.243005 -0.107665 0.149671 0.188014 -0.144559 -0.155457 -0.669785 -0.817414 -1.02786 -1.18772 -1.80789 -1.92107 -2.28437 -2.43201 -1.92107 -2.03426 -2.43201 -2.57068 -2.28437 -2.43201 -2.7646 -2.93172 -2.03426 -2.14242 -2.57068 -2.71128 -2.41905 -2.44154 -3.1921 -3.19066 -3.1921 -3.19066 -3.95928 -3.96852 -2.77528 -2.78104 -3.06864 -3.39012 -2.78104 -2.78681 -3.39012 -3.71374 -3.06864 -3.39012 -4.4737 -4.39046 -3.85728 -3.98865 -4.86561 -5.00238 -3.98865 -4.12003 -5.00238 -5.13783 -5.47602 -5.57784 -6.65264 -6.28349 0.00480188 0.029877 0.0292 -0.11062 0.029877 0.0549522 -0.11062 -0.238155 -0.601416 -0.760105 -0.973314 -1.13138 -0.760105 -0.913099 -1.13138 -1.28944 -1.79821 -1.95273 -2.18701 -2.35389 -1.95273 -2.10726 -2.35389 -2.53054 -2.18701 -2.35389 -2.57938 -2.73679 -2.35389 -2.53054 -2.73679 -2.91886 -2.10726 -2.27005 -2.53054 -2.69371 -2.27005 -2.43285 -2.69371 -2.86612 -3.56022 -3.48075 -4.03361 -4.32606 -3.48075 -4.0409 -4.32606 -4.6185 -3.95147 -3.99004 -4.68091 -4.73433 -4.68091 -4.73433 -5.43677 -5.47863 -4.66865 -3.72407 -4.88423 -5.14751 -5.46212 -5.59642 -6.42658 -6.55923 -5.59642 -5.73028 -6.55923 -6.6924 -5.31015 -5.44298 -6.27909 -6.41678 -5.44298 -5.58019 -6.41678 -6.55641 -6.93829 -7.05625 -7.93423 -7.94128 -7.05625 -7.20632 -7.94128 -7.94833 -0.0716626 -0.0447097 -0.02