# vtk DataFile Version 3.0
#This file was generated by the deal.II library on 2015/9/2 at 7:53:46
ASCII
DATASET UNSTRUCTURED_GRID

POINTS 18152 double
0 0 0
0.05 0 0
0 0.05 0
0.05 0.05 0
0.05 0 0
0.1 0 0
0.05 0.05 0
0.1 0.05 0
0.1 0 0
0.15 0 0
0.1 0.05 0
0.15 0.05 0
0.15 0 0
0.2 0 0
0.15 0.05 0
0.2 0.05 0
0.2 0 0
0.25 0 0
0.2 0.05 0
0.25 0.05 0
0.25 0 0
0.3 0 0
0.25 0.05 0
0.3 0.05 0
0.3 0 0
0.35 0 0
0.3 0.05 0
0.35 0.05 0
0.35 0 0
0.4 0 0
0.35 0.05 0
0.4 0.05 0
0.4 0 0
0.45 0 0
0.4 0.05 0
0.45 0.05 0
0.45 0 0
0.5 0 0
0.45 0.05 0
0.5 0.05 0
0.5 0 0
0.55 0 0
0.5 0.05 0
0.55 0.05 0
0.55 0 0
0.6 0 0
0.55 0.05 0
0.6 0.05 0
0.6 0 0
0.65 0 0
0.6 0.05 0
0.65 0.05 0
0.65 0 0
0.7 0 0
0.65 0.05 0
0.7 0.05 0
0.7 0 0
0.75 0 0
0.7 0.05 0
0.75 0.05 0
0.75 0 0
0.8 0 0
0.75 0.05 0
0.8 0.05 0
0.8 0 0
0.85 0 0
0.8 0.05 0
0.85 0.05 0
0.85 0 0
0.9 0 0
0.85 0.05 0
0.9 0.05 0
0.9 0 0
0.95 0 0
0.9 0.05 0
0.95 0.05 0
0.95 0 0
1 0 0
0.95 0.05 0
1 0.05 0
1 0 0
1.05 0 0
1 0.05 0
1.05 0.05 0
1.05 0 0
1.1 0 0
1.05 0.05 0
1.1 0.05 0
1.1 0 0
1.15 0 0
1.1 0.05 0
1.15 0.05 0
1.15 0 0
1.2 0 0
1.15 0.05 0
1.2 0.05 0
1.2 0 0
1.25 0 0
1.2 0.05 0
1.25 0.05 0
1.45 0 0
1.5 0 0
1.45 0.05 0
1.5 0.05 0
1.5 0 0
1.55 0 0
1.5 0.05 0
1.55 0.05 0
1.55 0 0
1.6 0 0
1.55 0.05 0
1.6 0.05 0
1.6 0 0
1.65 0 0
1.6 0.05 0
1.65 0.05 0
1.65 0 0
1.7 0 0
1.65 0.05 0
1.7 0.05 0
1.7 0 0
1.75 0 0
1.7 0.05 0
1.75 0.05 0
1.75 0 0
1.8 0 0
1.75 0.05 0
1.8 0.05 0
1.8 0 0
1.85 0 0
1.8 0.05 0
1.85 0.05 0
1.85 0 0
1.9 0 0
1.85 0.05 0
1.9 0.05 0
1.9 0 0
1.95 0 0
1.9 0.05 0
1.95 0.05 0
1.95 0 0
2 0 0
1.95 0.05 0
2 0.05 0
0 0.05 0
0.05 0.05 0
0 0.1 0
0.05 0.1 0
0.05 0.05 0
0.1 0.05 0
0.05 0.1 0
0.1 0.1 0
0.1 0.05 0
0.15 0.05 0
0.1 0.1 0
0.15 0.1 0
0.15 0.05 0
0.2 0.05 0
0.15 0.1 0
0.2 0.1 0
0.2 0.05 0
0.25 0.05 0
0.2 0.1 0
0.25 0.1 0
0.25 0.05 0
0.3 0.05 0
0.25 0.1 0
0.3 0.1 0
0.3 0.05 0
0.35 0.05 0
0.3 0.1 0
0.35 0.1 0
0.35 0.05 0
0.4 0.05 0
0.35 0.1 0
0.4 0.1 0
1.15 0.05 0
1.2 0.05 0
1.15 0.1 0
1.2 0.1 0
1.2 0.05 0
1.25 0.05 0
1.2 0.1 0
1.25 0.1 0
1.25 0.05 0
1.3 0.05 0
1.25 0.1 0
1.3 0.1 0
1.55 0.05 0
1.6 0.05 0
1.55 0.1 0
1.6 0.1 0
1.6 0.05 0
1.65 0.05 0
1.6 0.1 0
1.65 0.1 0
1.65 0.05 0
1.7 0.05 0
1.65 0.1 0
1.7 0.1 0
1.7 0.05 0
1.75 0.05 0
1.7 0.1 0
1.75 0.1 0
1.75 0.05 0
1.8 0.05 0
1.75 0.1 0
1.8 0.1 0
1.8 0.05 0
1.85 0.05 0
1.8 0.1 0
1.85 0.1 0
1.85 0.05 0
1.9 0.05 0
1.85 0.1 0
1.9 0.1 0
1.9 0.05 0
1.95 0.05 0
1.9 0.1 0
1.95 0.1 0
1.95 0.05 0
2 0.05 0
1.95 0.1 0
2 0.1 0
0.15 0.1 0
0.2 0.1 0
0.15 0.15 0
0.2 0.15 0
0.2 0.1 0
0.25 0.1 0
0.2 0.15 0
0.25 0.15 0
0.25 0.1 0
0.3 0.1 0
0.25 0.15 0
0.3 0.15 0
0.3 0.1 0
0.35 0.1 0
0.3 0.15 0
0.35 0.15 0
1.65 0.1 0
1.7 0.1 0
1.65 0.15 0
1.7 0.15 0
1.7 0.1 0
1.75 0.1 0
1.7 0.15 0
1.75 0.15 0
1.75 0.1 0
1.8 0.1 0
1.75 0.15 0
1.8 0.15 0
1.8 0.1 0
1.85 0.1 0
1.8 0.15 0
1.85 0.15 0
1.85 0.1 0
1.9 0.1 0
1.85 0.15 0
1.9 0.15 0
1.9 0.1 0
1.95 0.1 0
1.9 0.15 0
1.95 0.15 0
1.95 0.1 0
2 0.1 0
1.95 0.15 0
2 0.15 0
0.25 0.15 0
0.3 0.15 0
0.25 0.2 0
0.3 0.2 0
0.3 0.15 0
0.35 0.15 0
0.3 0.2 0
0.35 0.2 0
0.35 0.15 0
0.4 0.15 0
0.35 0.2 0
0.4 0.2 0
0.65 0.15 0
0.7 0.15 0
0.65 0.2 0
0.7 0.2 0
0.7 0.15 0
0.75 0.15 0
0.7 0.2 0
0.75 0.2 0
0.75 0.15 0
0.8 0.15 0
0.75 0.2 0
0.8 0.2 0
0.8 0.15 0
0.85 0.15 0
0.8 0.2 0
0.85 0.2 0
0.85 0.15 0
0.9 0.15 0
0.85 0.2 0
0.9 0.2 0
0.9 0.15 0
0.95 0.15 0
0.9 0.2 0
0.95 0.2 0
0.95 0.15 0
1 0.15 0
0.95 0.2 0
1 0.2 0
1 0.15 0
1.05 0.15 0
1 0.2 0
1.05 0.2 0
1.75 0.15 0
1.8 0.15 0
1.75 0.2 0
1.8 0.2 0
1.8 0.15 0
1.85 0.15 0
1.8 0.2 0
1.85 0.2 0
1.85 0.15 0
1.9 0.15 0
1.85 0.2 0
1.9 0.2 0
1.9 0.15 0
1.95 0.15 0
1.9 0.2 0
1.95 0.2 0
1.95 0.15 0
2 0.15 0
1.95 0.2 0
2 0.2 0
0.35 0.2 0
0.4 0.2 0
0.35 0.25 0
0.4 0.25 0
0.4 0.2 0
0.45 0.2 0
0.4 0.25 0
0.45 0.25 0
0.8 0.2 0
0.85 0.2 0
0.8 0.25 0
0.85 0.25 0
0.85 0.2 0
0.9 0.2 0
0.85 0.25 0
0.9 0.25 0
0.9 0.2 0
0.95 0.2 0
0.9 0.25 0
0.95 0.25 0
0.95 0.2 0
1 0.2 0
0.95 0.25 0
1 0.25 0
1.8 0.2 0
1.85 0.2 0
1.8 0.25 0
1.85 0.25 0
1.85 0.2 0
1.9 0.2 0
1.85 0.25 0
1.9 0.25 0
1.9 0.2 0
1.95 0.2 0
1.9 0.25 0
1.95 0.25 0
1.95 0.2 0
2 0.2 0
1.95 0.25 0
2 0.25 0
0 0.25 0
0.05 0.25 0
0 0.3 0
0.05 0.3 0
0.05 0.25 0
0.1 0.25 0
0.05 0.3 0
0.1 0.3 0
0.1 0.25 0
0.15 0.25 0
0.1 0.3 0
0.15 0.3 0
0.45 0.25 0
0.5 0.25 0
0.45 0.3 0
0.5 0.3 0
0.5 0.25 0
0.55 0.25 0
0.5 0.3 0
0.55 0.3 0
0.9 0.25 0
0.95 0.25 0
0.9 0.3 0
0.95 0.3 0
0.95 0.25 0
1 0.25 0
0.95 0.3 0
1 0.3 0
1.25 0.25 0
1.3 0.25 0
1.25 0.3 0
1.3 0.3 0
1.3 0.25 0
1.35 0.25 0
1.3 0.3 0
1.35 0.3 0
1.9 0.25 0
1.95 0.25 0
1.9 0.3 0
1.95 0.3 0
1.95 0.25 0
2 0.25 0
1.95 0.3 0
2 0.3 0
0 0.3 0
0.05 0.3 0
0 0.35 0
0.05 0.35 0
0.05 0.3 0
0.1 0.3 0
0.05 0.35 0
0.1 0.35 0
0.1 0.3 0
0.15 0.3 0
0.1 0.35 0
0.15 0.35 0
0.15 0.3 0
0.2 0.3 0
0.15 0.35 0
0.2 0.35 0
0.2 0.3 0
0.25 0.3 0
0.2 0.35 0
0.25 0.35 0
0.6 0.3 0
0.65 0.3 0
0.6 0.35 0
0.65 0.35 0
1.2 0.3 0
1.25 0.3 0
1.2 0.35 0
1.25 0.35 0
1.25 0.3 0
1.3 0.3 0
1.25 0.35 0
1.3 0.35 0
1.3 0.3 0
1.35 0.3 0
1.3 0.35 0
1.35 0.35 0
1.35 0.3 0
1.4 0.3 0
1.35 0.35 0
1.4 0.35 0
0 0.35 0
0.05 0.35 0
0 0.4 0
0.05 0.4 0
0.05 0.35 0
0.1 0.35 0
0.05 0.4 0
0.1 0.4 0
0.1 0.35 0
0.15 0.35 0
0.1 0.4 0
0.15 0.4 0
0.15 0.35 0
0.2 0.35 0
0.15 0.4 0
0.2 0.4 0
0.2 0.35 0
0.25 0.35 0
0.2 0.4 0
0.25 0.4 0
0.25 0.35 0
0.3 0.35 0
0.25 0.4 0
0.3 0.4 0
0.3 0.35 0
0.35 0.35 0
0.3 0.4 0
0.35 0.4 0
0.7 0.35 0
0.75 0.35 0
0.7 0.4 0
0.75 0.4 0
0.75 0.35 0
0.8 0.35 0
0.75 0.4 0
0.8 0.4 0
1.2 0.35 0
1.25 0.35 0
1.2 0.4 0
1.25 0.4 0
1.25 0.35 0
1.3 0.35 0
1.25 0.4 0
1.3 0.4 0
1.3 0.35 0
1.35 0.35 0
1.3 0.4 0
1.35 0.4 0
1.35 0.35 0
1.4 0.35 0
1.35 0.4 0
1.4 0.4 0
1.4 0.35 0
1.45 0.35 0
1.4 0.4 0
1.45 0.4 0
1.45 0.35 0
1.5 0.35 0
1.45 0.4 0
1.5 0.4 0
0 0.4 0
0.05 0.4 0
0 0.45 0
0.05 0.45 0
0.05 0.4 0
0.1 0.4 0
0.05 0.45 0
0.1 0.45 0
0.1 0.4 0
0.15 0.4 0
0.1 0.45 0
0.15 0.45 0
0.15 0.4 0
0.2 0.4 0
0.15 0.45 0
0.2 0.45 0
0.2 0.4 0
0.25 0.4 0
0.2 0.45 0
0.25 0.45 0
0.25 0.4 0
0.3 0.4 0
0.25 0.45 0
0.3 0.45 0
0.3 0.4 0
0.35 0.4 0
0.3 0.45 0
0.35 0.45 0
0.35 0.4 0
0.4 0.4 0
0.35 0.45 0
0.4 0.45 0
0.4 0.4 0
0.45 0.4 0
0.4 0.45 0
0.45 0.45 0
0.75 0.4 0
0.8 0.4 0
0.75 0.45 0
0.8 0.45 0
0.8 0.4 0
0.85 0.4 0
0.8 0.45 0
0.85 0.45 0
0.85 0.4 0
0.9 0.4 0
0.85 0.45 0
0.9 0.45 0
1.15 0.4 0
1.2 0.4 0
1.15 0.45 0
1.2 0.45 0
1.2 0.4 0
1.25 0.4 0
1.2 0.45 0
1.25 0.45 0
1.25 0.4 0
1.3 0.4 0
1.25 0.45 0
1.3 0.45 0
1.3 0.4 0
1.35 0.4 0
1.3 0.45 0
1.35 0.45 0
1.35 0.4 0
1.4 0.4 0
1.35 0.45 0
1.4 0.45 0
1.4 0.4 0
1.45 0.4 0
1.4 0.45 0
1.45 0.45 0
1.45 0.4 0
1.5 0.4 0
1.45 0.45 0
1.5 0.45 0
1.5 0.4 0
1.55 0.4 0
1.5 0.45 0
1.55 0.45 0
1.55 0.4 0
1.6 0.4 0
1.55 0.45 0
1.6 0.45 0
1.85 0.4 0
1.9 0.4 0
1.85 0.45 0
1.9 0.45 0
0 0.45 0
0.05 0.45 0
0 0.5 0
0.05 0.5 0
0.05 0.45 0
0.1 0.45 0
0.05 0.5 0
0.1 0.5 0
0.1 0.45 0
0.15 0.45 0
0.1 0.5 0
0.15 0.5 0
0.15 0.45 0
0.2 0.45 0
0.15 0.5 0
0.2 0.5 0
0.2 0.45 0
0.25 0.45 0
0.2 0.5 0
0.25 0.5 0
0.25 0.45 0
0.3 0.45 0
0.25 0.5 0
0.3 0.5 0
0.3 0.45 0
0.35 0.45 0
0.3 0.5 0
0.35 0.5 0
0.35 0.45 0
0.4 0.45 0
0.35 0.5 0
0.4 0.5 0
0.4 0.45 0
0.45 0.45 0
0.4 0.5 0
0.45 0.5 0
0.45 0.45 0
0.5 0.45 0
0.45 0.5 0
0.5 0.5 0
0.5 0.45 0
0.55 0.45 0
0.5 0.5 0
0.55 0.5 0
0.8 0.45 0
0.85 0.45 0
0.8 0.5 0
0.85 0.5 0
0.85 0.45 0
0.9 0.45 0
0.85 0.5 0
0.9 0.5 0
0.9 0.45 0
0.95 0.45 0
0.9 0.5 0
0.95 0.5 0
0.95 0.45 0
1 0.45 0
0.95 0.5 0
1 0.5 0
1.15 0.45 0
1.2 0.45 0
1.15 0.5 0
1.2 0.5 0
1.2 0.45 0
1.25 0.45 0
1.2 0.5 0
1.25 0.5 0
1.25 0.45 0
1.3 0.45 0
1.25 0.5 0
1.3 0.5 0
1.3 0.45 0
1.35 0.45 0
1.3 0.5 0
1.35 0.5 0
1.35 0.45 0
1.4 0.45 0
1.35 0.5 0
1.4 0.5 0
1.4 0.45 0
1.45 0.45 0
1.4 0.5 0
1.45 0.5 0
1.45 0.45 0
1.5 0.45 0
1.45 0.5 0
1.5 0.5 0
1.5 0.45 0
1.55 0.45 0
1.5 0.5 0
1.55 0.5 0
1.55 0.45 0
1.6 0.45 0
1.55 0.5 0
1.6 0.5 0
1.6 0.45 0
1.65 0.45 0
1.6 0.5 0
1.65 0.5 0
1.9 0.45 0
1.95 0.45 0
1.9 0.5 0
1.95 0.5 0
1.95 0.45 0
2 0.45 0
1.95 0.5 0
2 0.5 0
0 0.5 0
0.05 0.5 0
0 0.55 0
0.05 0.55 0
0.05 0.5 0
0.1 0.5 0
0.05 0.55 0
0.1 0.55 0
0.1 0.5 0
0.15 0.5 0
0.1 0.55 0
0.15 0.55 0
0.15 0.5 0
0.2 0.5 0
0.15 0.55 0
0.2 0.55 0
0.2 0.5 0
0.25 0.5 0
0.2 0.55 0
0.25 0.55 0
0.25 0.5 0
0.3 0.5 0
0.25 0.55 0
0.3 0.55 0
0.3 0.5 0
0.35 0.5 0
0.3 0.55 0
0.35 0.55 0
0.35 0.5 0
0.4 0.5 0
0.35 0.55 0
0.4 0.55 0
0.4 0.5 0
0.45 0.5 0
0.4 0.55 0
0.45 0.55 0
0.45 0.5 0
0.5 0.5 0
0.45 0.55 0
0.5 0.55 0
0.5 0.5 0
0.55 0.5 0
0.5 0.55 0
0.55 0.55 0
0.8 0.5 0
0.85 0.5 0
0.8 0.55 0
0.85 0.55 0
0.85 0.5 0
0.9 0.5 0
0.85 0.55 0
0.9 0.55 0
0.9 0.5 0
0.95 0.5 0
0.9 0.55 0
0.95 0.55 0
0.95 0.5 0
1 0.5 0
0.95 0.55 0
1 0.55 0
1.15 0.5 0
1.2 0.5 0
1.15 0.55 0
1.2 0.55 0
1.2 0.5 0
1.25 0.5 0
1.2 0.55 0
1.25 0.55 0
1.25 0.5 0
1.3 0.5 0
1.25 0.55 0
1.3 0.55 0
1.3 0.5 0
1.35 0.5 0
1.3 0.55 0
1.35 0.55 0
1.35 0.5 0
1.4 0.5 0
1.35 0.55 0
1.4 0.55 0
1.4 0.5 0
1.45 0.5 0
1.4 0.55 0
1.45 0.55 0
1.45 0.5 0
1.5 0.5 0
1.45 0.55 0
1.5 0.55 0
1.5 0.5 0
1.55 0.5 0
1.5 0.55 0
1.55 0.55 0
1.55 0.5 0
1.6 0.5 0
1.55 0.55 0
1.6 0.55 0
1.6 0.5 0
1.65 0.5 0
1.6 0.55 0
1.65 0.55 0
1.9 0.5 0
1.95 0.5 0
1.9 0.55 0
1.95 0.55 0
1.95 0.5 0
2 0.5 0
1.95 0.55 0
2 0.55 0
0 0.55 0
0.05 0.55 0
0 0.6 0
0.05 0.6 0
0.05 0.55 0
0.1 0.55 0
0.05 0.6 0
0.1 0.6 0
0.1 0.55 0
0.15 0.55 0
0.1 0.6 0
0.15 0.6 0
0.15 0.55 0
0.2 0.55 0
0.15 0.6 0
0.2 0.6 0
0.2 0.55 0
0.25 0.55 0
0.2 0.6 0
0.25 0.6 0
0.25 0.55 0
0.3 0.55 0
0.25 0.6 0
0.3 0.6 0
0.3 0.55 0
0.35 0.55 0
0.3 0.6 0
0.35 0.6 0
0.35 0.55 0
0.4 0.55 0
0.35 0.6 0
0.4 0.6 0
0.4 0.55 0
0.45 0.55 0
0.4 0.6 0
0.45 0.6 0
0.75 0.55 0
0.8 0.55 0
0.75 0.6 0
0.8 0.6 0
0.8 0.55 0
0.85 0.55 0
0.8 0.6 0
0.85 0.6 0
0.85 0.55 0
0.9 0.55 0
0.85 0.6 0
0.9 0.6 0
1.15 0.55 0
1.2 0.55 0
1.15 0.6 0
1.2 0.6 0
1.2 0.55 0
1.25 0.55 0
1.2 0.6 0
1.25 0.6 0
1.25 0.55 0
1.3 0.55 0
1.25 0.6 0
1.3 0.6 0
1.3 0.55 0
1.35 0.55 0
1.3 0.6 0
1.35 0.6 0
1.35 0.55 0
1.4 0.55 0
1.35 0.6 0
1.4 0.6 0
1.4 0.55 0
1.45 0.55 0
1.4 0.6 0
1.45 0.6 0
1.45 0.55 0
1.5 0.55 0
1.45 0.6 0
1.5 0.6 0
1.5 0.55 0
1.55 0.55 0
1.5 0.6 0
1.55 0.6 0
1.55 0.55 0
1.6 0.55 0
1.55 0.6 0
1.6 0.6 0
1.85 0.55 0
1.9 0.55 0
1.85 0.6 0
1.9 0.6 0
0 0.6 0
0.05 0.6 0
0 0.65 0
0.05 0.65 0
0.05 0.6 0
0.1 0.6 0
0.05 0.65 0
0.1 0.65 0
0.1 0.6 0
0.15 0.6 0
[...]
POINT_DATA 18152
SCALARS x_displacement double 1
LOOKUP_TABLE default
0 1.33638 0 0.780554 1.33638 2.35227 0.780554 1.60617 2.35227 3.20244 1.60617 2.33767 3.20244 3.93502 2.33767 2.9892 3.93502 4.58096 2.9892 3.57509 4.58096 5.17298 3.57509 4.10979 5.17298 5.74294 4.10979 4.61285 5.74294 6.31202 4.61285 5.1044 6.31202 6.88349 5.1044 5.59381 6.88349 7.4546 5.59381 6.08118 7.4546 8.02578 6.08118 6.57 8.02578 8.59623 6.57 7.06244 8.59623 9.15076 7.06244 7.56518 9.15076 9.67277 7.56518 8.07472 9.67277 10.168 8.07472 8.59334 10.168 10.6566 8.59334 9.11987 10.6566 11.1478 9.11987 9.64704 11.1478 11.6414 9.64704 10.1742 11.6414 12.1367 10.1742 10.7019 12.1367 12.6375 10.7019 11.2255 12.6375 13.165 11.2255 11.7357 13.165 13.7471 11.7357 12.2305 13.7471 14.3821 12.2305 12.7067 14.3821 14.9967 12.7067 13.1649 14.9967 15.4677 13.1649 13.5639 16.9551 17.4572 14.7041 15.056 17.4572 17.8131 15.056 15.4946 17.8131 18.1288 15.4946 15.8542 18.1288 18.3985 15.8542 16.1399 18.3985 18.6047 16.1399 16.3677 18.6047 18.7431 16.3677 16.5334 18.7431 18.8161 16.5334 16.6491 18.8161 18.8389 16.6491 16.7174 18.8389 18.8306 16.7174 16.7505 18.8306 18.8156 16.7505 16.7611 18.8156 18.81 16.7611 16.7643 0 0.780554 0 0.533735 0.780554 1.60617 0.533735 1.09493 1.60617 2.33767 1.09493 1.65995 2.33767 2.9892 1.65995 2.1904 2.9892 3.57509 2.1904 2.68352 3.57509 4.10979 2.68352 3.13085 4.10979 4.61285 3.13085 3.52368 4.61285 5.1044 3.52368 3.90311 12.7067 13.1649 11.136 11.4771 13.1649 13.5639 11.4771 11.7867 13.5639 13.902 11.7867 12.046 15.4946 15.8542 13.3878 13.7284 15.8542 16.1399 13.7284 14.0216 16.1399 16.3677 14.0216 14.2473 16.3677 16.5334 14.2473 14.4486 16.5334 16.6491 14.4486 14.5841 16.6491 16.7174 14.5841 14.6749 16.7174 16.7505 14.6749 14.7229 16.7505 16.7611 14.7229 14.7386 16.7611 16.7643 14.7386 14.7431 1.65995 2.1904 1.06251 1.48207 2.1904 2.68352 1.48207 1.88897 2.68352 3.13085 1.88897 2.26271 3.13085 3.52368 2.26271 2.58318 14.0216 14.2473 11.8785 12.277 14.2473 14.4486 12.277 12.4595 14.4486 14.5841 12.4595 12.6131 14.5841 14.6749 12.6131 12.7206 14.6749 14.7229 12.7206 12.7729 14.7229 14.7386 12.7729 12.7868 14.7386 14.7431 12.7868 12.7854 1.88897 2.26271 1.1558 1.48984 2.26271 2.58318 1.48984 1.80997 2.58318 2.8475 1.80997 2.13318 4.32029 4.45635 2.92896 2.66427 4.45635 5.50289 2.66427 3.49271 5.50289 6.04025 3.49271 4.59484 6.04025 6.64686 4.59484 5.14983 6.64686 7.24697 5.14983 5.72801 7.24697 7.78326 5.72801 6.52467 7.78326 8.62793 6.52467 8.20525 8.62793 9.1468 8.20525 7.08432 12.4595 12.6131 10.5519 10.7385 12.6131 12.7206 10.7385 10.8475 12.7206 12.7729 10.8475 10.9168 12.7729 12.7868 10.9168 10.9322 12.7868 12.7854 10.9322 10.9179 1.80997 2.13318 1.08914 1.41117 2.13318 2.44122 1.41117 1.7293 4.59484 5.14983 4.18127 4.65368 5.14983 5.72801 4.65368 5.79328 5.72801 6.52467 5.79328 5.95509 6.52467 8.20525 5.95509 6.23758 10.7385 10.8475 8.86452 9.0558 10.8475 10.9168 9.0558 9.16751 10.9168 10.9322 9.16751 9.19334 10.9322 10.9179 9.19334 9.15941 0 -0.0575786 0 0.0235719 -0.0575786 -0.0340411 0.0235719 0.00353012 -0.0340411 -0.0635284 0.00353012 -0.00414201 1.7293 2.04391 1.01842 1.33447 2.04391 2.36027 1.33447 1.65036 5.79328 5.95509 4.05646 4.80497 5.95509 6.23758 4.80497 5.44395 6.45494 6.58729 5.20138 5.17844 6.58729 6.5617 5.17844 5.25534 9.16751 9.19334 7.52363 7.58262 9.19334 9.15941 7.58262 7.50336 0 0.0235719 0 0.0202559 0.0235719 0.00353012 0.0202559 0.0251577 0.00353012 -0.00414201 0.0251577 0.0329907 -0.00414201 0.0544438 0.0329907 0.0494192 0.0544438 0.128349 0.0494192 0.0684344 1.96727 2.28865 1.24138 1.54118 5.21289 5.20138 3.72606 3.78129 5.20138 5.17844 3.78129 3.85322 5.17844 5.25534 3.85322 3.90596 5.25534 5.28985 3.90596 3.95805 0 0.0202559 0 0.016216 0.0202559 0.0251577 0.016216 0.0239591 0.0251577 0.0329907 0.0239591 0.0267868 0.0329907 0.0494192 0.0267868 0.0249948 0.0494192 0.0684344 0.0249948 0.0136804 0.0684344 0.0859431 0.0136804 -0.0135869 0.0859431 0.0862881 -0.0135869 -0.0857513 1.83457 2.13564 1.06192 1.31181 2.13564 2.45086 1.31181 1.57031 3.72606 3.78129 2.37647 2.46376 3.78129 3.85322 2.46376 2.53362 3.85322 3.90596 2.53362 2.59708 3.90596 3.95805 2.59708 2.66045 3.95805 4.08311 2.66045 2.69611 4.08311 4.74849 2.69611 2.47515 0 0.016216 0 0.00878814 0.016216 0.0239591 0.00878814 0.0129698 0.0239591 0.0267868 0.0129698 0.0129083 0.0267868 0.0249948 0.0129083 0.00768335 0.0249948 0.0136804 0.00768335 -0.00455632 0.0136804 -0.0135869 -0.00455632 -0.0244132 -0.0135869 -0.0857513 -0.0244132 -0.0332739 -0.0857513 -0.0892476 -0.0332739 -0.0486914 -0.0892476 -0.129661 -0.0486914 -0.036353 1.31181 1.57031 0.561428 0.743318 1.57031 1.81675 0.743318 0.887846 1.81675 2.03652 0.887846 0.993356 2.28706 2.37647 0.95304 1.12112 2.37647 2.46376 1.12112 1.20573 2.46376 2.53362 1.20573 1.25611 2.53362 2.59708 1.25611 1.29484 2.59708 2.66045 1.29484 1.31592 2.66045 2.69611 1.31592 1.28473 2.69611 2.47515 1.28473 1.28513 2.47515 2.55326 1.28513 1.25151 2.55326 2.42899 1.25151 1.20686 3.66114 3.93974 1.75032 1.96377 0 0.00878814 0 -2.66092e-10 0.00878814 0.0129698 -2.66092e-10 -4.86695e-10 0.0129698 0.0129083 -4.86695e-10 -6.23675e-10 0.0129083 0.00768335 -6.23675e-10 -5.94106e-10 0.00768335 -0.00455632 -5.94106e-10 -2.55781e-10 -0.00455632 -0.0244132 -2.55781e-10 2.38541e-10 -0.0244132 -0.0332739 2.38541e-10 -3.91434e-10 -0.0332739 -0.0486914 -3.91434e-10 -2.88418e-09 -0.0486914 -0.036353 -2.88418e-09 -4.64395e-09 -0.036353 0.0245183 -4.64395e-09 -4.09541e-09 0.0245183 0.281927 -4.09541e-09 -2.25013e-09 0.743318 0.887846 5.5331e-13 3.95718e-13 0.887846 0.993356 3.95718e-13 2.87055e-13 0.993356 1.04251 2.87055e-13 2.72959e-13 1.04251 1.02514 2.72959e-13 1.68769e-13 0.95304 1.12112 -2.33873e-10 -3.68034e-10 1.12112 1.20573 -3.68034e-10 -3.32453e-11 1.20573 1.25611 -3.32453e-11 2.26611e-10 1.25611 1.29484 2.26611e-10 -9.06033e-11 1.29484 1.31592 -9.06033e-11 -1.0586e-09 1.31592 1.28473 -1.0586e-09 -1.39628e-09 1.28473 1.28513 -1.39628e-09 -1.05736e-09 1.28513 1.25151 -1.05736e-09 1.82207e-09 1.25151 1.20686 1.82207e-09 3.18299e-09 1.20686 1.17961 3.18299e-09 2.77988e-09 1.96377 2.18472 1.18477e-13 1.66306e-13 2.18472 2.19531 1.66306e-13 5.88255e-13 0 -2.66092e-10 0 -0.00878815 -2.66092e-10 -4.86695e-10 -0.00878815 -0.0129698 -4.86695e-10 -6.23675e-10 -0.0129698 -0.0129083 -6.23675e-10 -5.94106e-10 -0.0129083 -0.00768335 -5.94106e-10 -2.55781e-10 -0.00768335 0.00455632 -2.55781e-10 2.38541e-10 0.00455632 0.0244132 2.38541e-10 -3.91434e-10 0.0244132 0.0332739 -3.91434e-10 -2.88418e-09 0.0332739 0.0486914 -2.88418e-09 -4.64395e-09 0.0486914 0.036353 -4.64395e-09 -4.09541e-09 0.036353 -0.0245183 -4.09541e-09 -2.25013e-09 -0.0245183 -0.281927 5.5331e-13 3.95718e-13 -0.743318 -0.887846 3.95718e-13 2.87055e-13 -0.887846 -0.993356 2.87055e-13 2.72959e-13 -0.993356 -1.04251 2.72959e-13 1.68769e-13 -1.04251 -1.02514 -2.33873e-10 -3.68034e-10 -0.95304 -1.12112 -3.68034e-10 -3.32453e-11 -1.12112 -1.20573 -3.32453e-11 2.26611e-10 -1.20573 -1.25611 2.26611e-10 -9.06033e-11 -1.25611 -1.29484 -9.06033e-11 -1.0586e-09 -1.29484 -1.31592 -1.0586e-09 -1.39628e-09 -1.31592 -1.28473 -1.39628e-09 -1.05736e-09 -1.28473 -1.28513 -1.05736e-09 1.82207e-09 -1.28513 -1.25151 1.82207e-09 3.18299e-09 -1.25151 -1.20686 3.18299e-09 2.77988e-09 -1.20686 -1.17961 1.18477e-13 1.66306e-13 -1.96377 -2.18472 1.66306e-13 5.88255e-13 -2.18472 -2.19531 0 -0.00878815 0 -0.016216 -0.00878815 -0.0129698 -0.016216 -0.0239591 -0.0129698 -0.0129083 -0.0239591 -0.0267868 -0.0129083 -0.00768335 -0.0267868 -0.0249948 -0.00768335 0.00455632 -0.0249948 -0.0136804 0.00455632 0.0244132 -0.0136804 0.0135869 0.0244132 0.0332739 0.0135869 0.0857513 0.0332739 0.0486914 0.0857513 0.0892475 0.0486914 0.036353 0.0892475 0.129661 -0.561428 -0.743318 -1.31181 -1.57031 -0.743318 -0.887846 -1.57031 -1.81675 -0.887846 -0.993356 -1.81675 -2.03652 -0.95304 -1.12112 -2.28706 -2.37647 -1.12112 -1.20573 -2.37647 -2.46376 -1.20573 -1.25611 -2.46376 -2.53362 -1.25611 -1.29484 -2.53362 -2.59708 -1.29484 -1.31592 -2.59708 -2.66045 -1.31592 -1.28473 -2.66045 -2.69611 -1.28473 -1.28513 -2.69611 -2.47515 -1.28513 -1.25151 -2.47515 -2.55326 -1.25151 -1.20686 -2.55326 -2.42899 -1.75032 -1.96377 -3.66114 -3.93974 0 -0.016216 0 -0.0202559 -0.016216 -0.0239591 -0.0202559 -0.0251577 -0.0239591 -0.0267868 -0.0251577 -0.0329907 -0.0267868 -0.0249948 -0.0329907 -0.0494192 -0.0249948 -0.0136804 -0.0494192 -0.0684344 -0.0136804 0.0135869 -0.0684344 -0.0859431 0.0135869 0.0857513 -0.0859431 -0.0862881 -1.06192 -1.31181 -1.83457 -2.13564 -1.31181 -1.57031 -2.13564 -2.45086 -2.37647 -2.46376 -3.72606 -3.78129 -2.46376 -2.53362 -3.78129 -3.85322 -2.53362 -2.59708 -3.85322 -3.90596 -2.59708 -2.66045 -3.90596 -3.95805 -2.66045 -2.69611 -3.95805 -4.08311 -2.69611 -2.47515 -4.08311 -4.74849 0 -0.0202559 0 -0.0235719 -0.0202559 -0.0251577 -0.0235719 -0.00353012 -0.0251577 -0.0329907 -0.00353012 0.00414201 -0.0329907 -0.0494192 0.00414201 -0.0544438 -0.0494192 -0.0684344 -0.0544438 -0.128349 -1.24138 -1.54118 -1.96727 -2.28865 -3.72606 -3.78129 -5.21289 -5.20138 -3.78129 -3.85322 -5.20138 -5.17844 -3.85322 -3.90596 -5.17844 -5.25534 -3.90596 -3.95805 -5.25534 -5.28985 0 -0.0235719 0 0.0575786 -0.0235719 -0.00353012 0.0575786 0.0340411 -0.00353012 0.00414201 0.0340411 0.0635284 -1.01842 -1.33447 -1.7293 -2.04391 -1.33447 -1.65036 -2.04391 -2.36027 -4.05646 -4.80497 -5.79328 -5.95509 -4.80497 -5.44395 -5.95509 -6.23758 -5.20138 -5.17844 -6.45494 -6.58729 -5.17844 -5.25534 -6.58729 -6.5617 -7.52363 -7.58262 -9.16751 -9.19334 -7.58262 -7.50336 -9.19334 -9.15941 -1.08914 -1.41117 -1.80997 -2.13318 -1.41117 -1.7293 -2.13318 -2.44122 -4.18127 -4.65368 -4.59484 -5.14983 -4.65368 -5.79328 -5.14983 -5.72801 -5.79328 -5.95509 -5.72801 -6.52467 -5.95509 -6.23758 -6.52467 -8.20525 -8.86452 -9.0558 -10.7385 -10.8475 -9.0558 -9.16751 -10.8475 -10.9168 -9.16751 -9.19334 -10.9168 -10.9322 -9.19334 -9.15941 -10.9322 -10.9179 -1.1558 -1.48984 -1.88897 -2.26271 -1.48984 -1.80997 -2.26271 -2.58318 -1.80997 -2.13318 -2.58318 -2.8475 -2.92896 -2.66427 -4.32029 -4.45635 -2.66427 -3.49271 -4.45635 -5.50289 -3.49271 -4.59484 -5.50289 -6.04025 -4.59484 -5.14983 -6.04025 -6.64686 -5.14983 -5.72801 -6.64686 -7.24697 -5.72801 -6.52467 -7.24697 -7.78326 -6.52467 -8.20525 -7.78326 -8.62793 -8.20525 -7.08432 -8.62793 -9.1468 -10.5519 -10.7385 -12.4595 -12.6131 -10.7385 -10.8475 -12.6131 -12.7206 -10.8475 -10.9168 -12.7206 -12.7729 -10.9168 -10.9322 -12.7729 -12.7868 -10.9322 -10.9179 -12.7868 -12.7854 -1.06251 -1.48207 -1.65995 -2.1904 -1.48207 -1.88897 -2.1904 -2.68352 -1.88897 -2.26271 -2.68352 -3.13085 -2.26271 -2.58318 -3.13085 -3.52368 -11.8785 -12.277 -14.0216 -14.2473 -12.277 -12.4595 -14.2473 -14.4486 -12.4595 -12.6131 -14.4486 -14.5841 -12.6131 -12.7206 -14.5841 -14.6749 -12.7206 -12.7729 -14.6749 -14.7229 -12.7729 -12.7868 -14.7229 -14.7386 -12.7868 -12.7854 -14.7386 -14.7431 0 -0.533735 0 -0.780554 -0.533735 -1.09493 -0.780554 -1.60617 -1.09493 -1.65995 -1.60617 -2.33767 -1.65995 -2.1904 -2.33767 -2.9892 -2.1904 -2.68352 -2.9892 -3.57509 -2.68352 -3.13085 -3.57509 -4.10979 -3.13085 -3.52368 -4.10979 -4.61285 -3.52368 -3.90311 -4.61285 -5.1044 -11.136 -11.4771 -12.7067 -13.1649 -11.4771 -11.7867 -13.1649 -13.5639 -11.7867 -12.046 -13.5639 -13.902 -13.3878 -13.7284 -15.4946 -15.8542 -13.7284 -14.0216 -15.8542 -16.1399 -14.0216 -14.2473 -16.1399 -16.3677 -14.2473 -14.4486 -16.3677 -16.5334 -14.4486 -14.5841 -16.5334 -16.6491 -14.5841 -14.6749 -16.6491 -16.7174 -14.6749 -14.7229 -16.7174 -16.7505 -14.7229 -14.7386 -16.7505 -16.7611 -14.7386 -14.7431 -16.7611 -16.7643 0 -0.780554 0 -1.33638 -0.780554 -1.60617 -1.33638 -2.35227 -1.60617 -2.33767 -2.35227 -3.20244 -2.33767 -2.9892 -3.20244 -3.93502 -2.9892 -3.57509 -3.93502 -4.58096 -3.57509 -4.10979 -4.58096 -5.17298 -4.10979 -4.61285 -5.17298 -5.74294 -4.61285 -5.1044 -5.74294 -6.31202 -5.1044 -5.59381 -6.31202 -6.88349 -5.59381 -6.08118 -6.88349 -7.4546 -6.08118 -6.57 -7.4546 -8.02578 -6.57 -7.06244 -8.02578 -8.59623 -7.06244 -7.56518 -8.59623 -9.15076 -7.56518 -8.07472 -9.15076 -9.67277 -8.07472 -8.59334 -9.67277 -10.168 -8.59334 -9.11987 -10.168 -10.6566 -9.11987 -9.64704 -10.6566 -11.1478 -9.64704 -10.1742 -11.1478 -11.6414 -10.1742 -10.7019 -11.6414 -12.1367 -10.7019 -11.2255 -12.1367 -12.6375 -11.2255 -11.7357 -12.6375 -13.165 -11.7357 -12.2305 -13.165 -13.7471 -12.2305 -12.7067 -13.7471 -14.3821 -12.7067 -13.1649 -14.3821 -14.9967 -13.1649 -13.5639 -14.9967 -15.4677 -14.7041 -15.056 -16.9551 -17.4572 -15.056 -15.4946 -17.4572 -17.8131 -15.4946 -15.8542 -17.8131 -18.1288 -15.8542 -16.1399 -18.1288 -18.3985 -16.1399 -16.3677 -18.3985 -18.6047 -16.3677 -16.5334 -18.6047 -18.7431 -16.5334 -16.6491 -18.7431 -18.8161 -16.6491 -16.7174 -18.8161 -18.8389 -16.7174 -16.7505 -18.8389 -18.8306 -16.7505 -16.7611 -18.8306 -18.8156 -16.7611 -16.7643 -18.8156 -18.81 16.6786 16.021 15.1803 15.4005 5.59381 5.83749 4.94793 5.17032 5.83749 6.08118 5.17032 5.39408 4.94793 5.17032 4.29776 4.50236 5.17032 5.39408 4.50236 4.70717 6.08118 6.32559 5.39408 5.61823 6.32559 6.57 5.61823 5.84235 5.39408 5.61823 4.70717 4.91165 5.61823 5.84235 4.91165 5.11576 6.57 6.81622 5.84235 6.06735 6.81622 7.06244 6.06735 6.29435 7.06244 7.31381 6.29435 6.52558 7.31381 7.56518 6.52558 6.76665 7.56518 7.81995 6.76665 7.01452 7.81995 8.07472 7.01452 7.27111 8.07472 8.33403 7.27111 7.53532 8.33403 8.59334 7.53532 7.80638 8.59334 8.8566 7.80638 8.07889 8.8566 9.11987 8.07889 8.35159 9.11987 9.38345 8.35159 8.62406 9.38345 9.64704 8.62406 8.89624 9.64704 9.91063 8.89624 9.16821 9.91063 10.1742 9.16821 9.43994 10.1742 10.4381 9.43994 9.71149 10.4381 10.7019 9.71149 9.9827 10.7019 10.9637 9.9827 10.2534 10.9637 11.2255 10.2534 10.5205 11.2255 11.4806 10.5205 10.78 11.4806 11.7357 10.78 11.0268 11.7357 11.9831 11.0268 11.2656 11.9831 12.2305 11.2656 11.484 13.2347 13.3652 12.2922 12.4167 14.7041 14.88 13.5993 13.5607 14.88 15.056 13.5607 13.9766 0 0.266868 0 0.200047 0.266868 0.533735 0.200047 0.415624 0.533735 0.81433 0.415624 0.642313 0.81433 1.09493 0.642313 0.879391 0.415624 0.642313 0.281714 0.472641 0.642313 0.879391 0.472641 0.654484 5.08123 5.23305 4.32029 4.38832 5.23305 5.56615 4.38832 4.45635 5.56615 5.94511 4.45635 4.97962 5.94511 6.2345 4.97962 5.50289 6.2345 6.52736 5.50289 5.77157 6.52736 6.81708 5.77157 6.04025 6.81708 7.1068 6.04025 6.34356 7.1068 7.39625 6.34356 6.64686 7.39625 7.68503 6.64686 6.94692 7.68503 7.97269 6.94692 7.24697 7.97269 8.2592 7.24697 7.51511 8.2592 8.54485 7.51511 7.78326 8.54485 8.8303 7.78326 8.2056 8.8303 9.11042 8.2056 8.62793 9.11042 9.53536 8.62793 8.88737 9.53536 9.77431 8.88737 9.1468 9.77431 9.91107 9.1468 9.16043 10.9553 11.136 10.3081 10.4344 11.7867 11.9163 10.8613 10.9696 11.9163 12.046 10.9696 11.0863 13.3878 13.5581 12.4016 12.6544 13.5581 13.7284 12.6544 12.6913 12.6544 12.6913 11.4382 11.4423 0 0.155725 0 -0.208123 0.854477 1.06251 0.583985 0.769682 1.06251 1.27229 0.769682 0.954085 1.27229 1.48207 0.954085 1.14332 3.60462 3.94179 3.22502 3.13458 3.94179 3.98058 3.13458 3.41845 3.98058 4.11301 3.41845 3.57403 9.1468 9.16043 8.11556 8.62924 8.11556 8.62924 7.08432 7.95767 9.70217 9.73606 8.96969 8.99151 8.96969 8.99151 8.22994 8.23904 10.3821 10.5199 9.41952 9.56468 10.5199 10.6579 9.56468 9.70551 10.2619 10.394 9.31384 9.4541 10.394 10.531 9.4541 9.59448 12.2844 11.8785 10.8941 11.0497 0.101319 0.34444 -0.0340411 -0.0487847 0.34444 0.353145 -0.0487847 -0.0635284 1.1558 1.32282 0.793144 0.955606 1.32282 1.48984 0.955606 1.11884 2.3952 2.54584 2.04391 2.20209 2.54584 2.7052 2.20209 2.36027 2.92896 2.79661 3.17986 3.44931 2.79661 2.66427 3.44931 3.97449 7.3698 7.41851 6.62137 6.45494 7.15211 7.64233 6.58729 6.5745 7.64233 7.65132 6.5745 6.5617 8.89929 9.03843 7.95228 8.08884 8.92398 9.071 7.9778 8.11775 10.4603 10.5519 9.54084 9.74339 -0.101685 0.136842 0.0544438 0.0913963 0.136842 0.283856 0.0913963 0.128349 1.08914 1.25016 0.740328 0.903582 1.25016 1.41117 0.903582 1.05753 2.33148 2.49419 1.96727 2.12796 2.49419 2.65909 2.12796 2.28865 4.17422 4.18127 3.35378 3.36795 4.18127 4.41747 3.36795 3.83486 4.41747 4.65368 3.83486 4.35052 6.23758 6.57955 5.84077 6.02071 5.84077 6.02071 5.44395 5.40725 6.78004 6.77694 6.04978 6.05181 6.04978 6.05181 5.32806 5.33137 5.83398 6.16262 5.28985 5.03294 7.55866 7.69702 6.60467 6.74358 7.5826 7.71641 6.63646 6.77687 8.86452 8.96016 7.96634 8.10635 8.96016 9.0558 8.10635 8.20045 0.162119 0.201712 0.0859431 0.0861156 0.201712 0.256188 0.0861156 0.0862881 1.01842 1.17644 0.654163 0.815778 1.17644 1.33447 0.815778 0.970013 2.61581 2.78444 2.22752 2.39045 2.78444 2.97855 2.39045 2.5593 2.22752 2.39045 1.83457 1.9851 2.39045 2.5593 1.9851 2.13564 2.5593 2.72206 2.13564 2.29325 2.72206 2.89752 2.29325 2.45086 4.05646 4.43072 3.54856 3.44684 4.43072 4.80497 3.44684 4.32934 5.24848 5.21289 4.32695 4.46948 4.32695 4.46948 3.78718 3.72606 4.37896 4.88522 4.74849 3.14985 6.08142 6.2188 5.12582 5.27379 6.2188 6.35782 5.27379 5.41207 5.97488 6.11377 5.02951 5.1691 6.11377 6.26634 5.1691 5.30995 7.52363 7.55312 6.71071 6.78751 7.55312 7.58262 6.78751 6.83444 0.248519 0.163054 -0.448625 -0.130726 -0.448625 -0.130726 -0.0892476 -0.109454 -0.130726 0.258185 -0.109454 -0.129661 0.258185 0.284012 -0.129661 -0.199234 1.08909 1.24138 0.732973 0.877536 2.76415 2.92466 2.29093 2.43057 2.29093 2.43057 1.81675 1.92664 2.43057 2.56291 1.92664 2.03652 2.56291 2.70733 2.03652 2.14012 3.86824 3.86615 3.12919 3.12943 3.12919 3.12943 2.39196 2.40075 4.09003 4.01551 2.802 3.07936 2.802 3.07936 2.55326 2.49113 3.07936 3.36824 2.49113 2.42899 4.63659 4.77923 3.66114 3.80044 4.77923 4.92977 3.80044 3.93974 6.10285 6.06014 5.25219 5.25963 -0.239887 0.133675 0.281927 -0.782227 0.934272 1.06192 0.575087 0.695002 2.32152 2.28706 1.47291 1.62005 1.47291 1.62005 0.903171 0.95304 1.65735 1.88204 1.17961 1.14977 3.27637 3.40481 2.34747 2.4619 3.16194 3.2385 2.18472 2.19001 3.2385 3.26278 2.19001 2.19531 -0.414285 0.0919549 -1.96531e-11 7.93308e-13 0.0919549 0.11383 7.93308e-13 -2.0025e-13 1.02514 1.02138 0.512569 0.470791 0.512569 0.470791 1.68769e-13 3.68055e-14 0.350694 0.672699 3.99186e-10 6.22663e-11 1.65261 1.75032 0.770286 0.844981 -1.96531e-11 7.93308e-13 0.414285 -0.0919549 7.93308e-13 -2.0025e-13 -0.0919549 -0.11383 1.68769e-13 3.68055e-14 -0.512569 -0.470791 -0.512569 -0.470791 -1.02514 -1.02138 3.99186e-10 6.22663e-11 -0.350694 -0.672699 -0.770286 -0.844981 -1.65261 -1.75032 -0.281927 0.782227 0.239887 -0.133675 -0.575087 -0.695002 -0.934272 -1.06192 -0.903171 -0.95304 -1.47291 -1.62005 -1.47291 -1.62005 -2.32152 -2.28706 -1.17961 -1.14977 -1.65735 -1.88204 -2.34747 -2.4619 -3.27637 -3.40481 -2.18472 -2.19001 -3.16194 -3.2385 -2.19001 -2.19531 -3.2385 -3.26278 0.0892475 0.109454 0.448625 0.130726 0.109454 0.129661 0.130726 -0.258185 0.448625 0.130726 -0.248519 -0.163054 0.129661 0.199234 -0.258185 -0.284012 -0.732973 -0.877536 -1.08909 -1.24138 -1.81675 -1.92664 -2.29093 -2.43057 -1.92664 -2.03652 -2.43057 -2.56291 -2.29093 -2.43057 -2.76415 -2.92466 -2.03652 -2.14012 -2.56291 -2.70733 -2.39196 -2.40075 -3.12919 -3.12943 -3.12919 -3.12943 -3.86824 -3.86615 -2.55326 -2.49113 -2.802 -3.07936 -2.49113 -2.42899 -3.07936 -3.36824 -2.802 -3.07936 -4.09003 -4.01551 -3.66114 -3.80044 -4.63659 -4.77923 -3.80044 -3.93974 -4.77923 -4.92977 -5.25219 -5.25963 -6.10285 -6.06014 -0.0859431 -0.0861156 -0.162119 -0.201712 -0.0861156 -0.0862881 -0.201712 -0.256188 -0.654163 -0.815778 -1.01842 -1.17644 -0.815778 -0.970013 -1.17644 -1.33447 -1.83457 -1.9851 -2.22752 -2.39045 -1.9851 -2.13564 -2.39045 -2.5593 -2.22752 -2.39045 -2.61581 -2.78444 -2.39045 -2.5593 -2.78444 -2.97855 -2.13564 -2.29325 -2.5593 -2.72206 -2.29325 -2.45086 -2.72206 -2.89752 -3.54856 -3.44684 -4.05646 -4.43072 -3.44684 -4.32934 -4.43072 -4.80497 -3.78718 -3.72606 -4.32695 -4.46948 -4.32695 -4.46948 -5.24848 -5.21289 -4.74849 -3.14985 -4.37896 -4.88522 -5.12582 -5.27379 -6.08142 -6.2188 -5.27379 -5.41207 -6.2188 -6.35782 -5.02951 -5.1691 -5.97488 -6.11377 -5.1691 -5.30995 -6.11377 -6.26634 -6.71071 -6.78751 -7.52363 -7.5531