# vtk DataFile Version 3.0
#This file was generated by the deal.II library on 2016/3/9 at 8:36:03
ASCII
DATASET UNSTRUCTURED_GRID

POINTS 2048 double
0 0 0
0.0625 0 0
0 0.0625 0
0.0625 0.0625 0
0.0625 0 0
0.125 0 0
0.0625 0.0625 0
0.125 0.0625 0
0 0.0625 0
0.0625 0.0625 0
0 0.125 0
0.0625 0.125 0
0.0625 0.0625 0
0.125 0.0625 0
0.0625 0.125 0
0.125 0.125 0
0.125 0 0
0.1875 0 0
0.125 0.0625 0
0.1875 0.0625 0
0.1875 0 0
0.25 0 0
0.1875 0.0625 0
0.25 0.0625 0
0.125 0.0625 0
0.1875 0.0625 0
0.125 0.125 0
0.1875 0.125 0
0.1875 0.0625 0
0.25 0.0625 0
0.1875 0.125 0
0.25 0.125 0
0 0.125 0
0.0625 0.125 0
0 0.1875 0
0.0625 0.1875 0
0.0625 0.125 0
0.125 0.125 0
0.0625 0.1875 0
0.125 0.1875 0
0 0.1875 0
0.0625 0.1875 0
0 0.25 0
0.0625 0.25 0
0.0625 0.1875 0
0.125 0.1875 0
0.0625 0.25 0
0.125 0.25 0
0.125 0.125 0
0.1875 0.125 0
0.125 0.1875 0
0.1875 0.1875 0
0.1875 0.125 0
0.25 0.125 0
0.1875 0.1875 0
0.25 0.1875 0
0.125 0.1875 0
0.1875 0.1875 0
0.125 0.25 0
0.1875 0.25 0
0.1875 0.1875 0
0.25 0.1875 0
0.1875 0.25 0
0.25 0.25 0
0.25 0 0
0.3125 0 0
0.25 0.0625 0
0.3125 0.0625 0
0.3125 0 0
0.375 0 0
0.3125 0.0625 0
0.375 0.0625 0
0.25 0.0625 0
0.3125 0.0625 0
0.25 0.125 0
0.3125 0.125 0
0.3125 0.0625 0
0.375 0.0625 0
0.3125 0.125 0
0.375 0.125 0
0.375 0 0
0.4375 0 0
0.375 0.0625 0
0.4375 0.0625 0
0.4375 0 0
0.5 0 0
0.4375 0.0625 0
0.5 0.0625 0
0.375 0.0625 0
0.4375 0.0625 0
0.375 0.125 0
0.4375 0.125 0
0.4375 0.0625 0
0.5 0.0625 0
0.4375 0.125 0
0.5 0.125 0
0.25 0.125 0
0.3125 0.125 0
0.25 0.1875 0
0.3125 0.1875 0
0.3125 0.125 0
0.375 0.125 0
0.3125 0.1875 0
0.375 0.1875 0
0.25 0.1875 0
0.3125 0.1875 0
0.25 0.25 0
0.3125 0.25 0
0.3125 0.1875 0
0.375 0.1875 0
0.3125 0.25 0
0.375 0.25 0
0.375 0.125 0
0.4375 0.125 0
0.375 0.1875 0
0.4375 0.1875 0
0.4375 0.125 0
0.5 0.125 0
0.4375 0.1875 0
0.5 0.1875 0
0.375 0.1875 0
0.4375 0.1875 0
0.375 0.25 0
0.4375 0.25 0
0.4375 0.1875 0
0.5 0.1875 0
0.4375 0.25 0
0.5 0.25 0
0 0.25 0
0.0625 0.25 0
0 0.3125 0
0.0625 0.3125 0
0.0625 0.25 0
0.125 0.25 0
0.0625 0.3125 0
0.125 0.3125 0
0 0.3125 0
0.0625 0.3125 0
0 0.375 0
0.0625 0.375 0
0.0625 0.3125 0
0.125 0.3125 0
0.0625 0.375 0
0.125 0.375 0
0.125 0.25 0
0.1875 0.25 0
0.125 0.3125 0
0.1875 0.3125 0
0.1875 0.25 0
0.25 0.25 0
0.1875 0.3125 0
0.25 0.3125 0
0.125 0.3125 0
0.1875 0.3125 0
0.125 0.375 0
0.1875 0.375 0
0.1875 0.3125 0
0.25 0.3125 0
0.1875 0.375 0
0.25 0.375 0
0 0.375 0
0.0625 0.375 0
0 0.4375 0
0.0625 0.4375 0
0.0625 0.375 0
0.125 0.375 0
0.0625 0.4375 0
0.125 0.4375 0
0 0.4375 0
0.0625 0.4375 0
0 0.5 0
0.0625 0.5 0
0.0625 0.4375 0
0.125 0.4375 0
0.0625 0.5 0
0.125 0.5 0
0.125 0.375 0
0.1875 0.375 0
0.125 0.4375 0
0.1875 0.4375 0
0.1875 0.375 0
0.25 0.375 0
0.1875 0.4375 0
0.25 0.4375 0
0.125 0.4375 0
0.1875 0.4375 0
0.125 0.5 0
0.1875 0.5 0
0.1875 0.4375 0
0.25 0.4375 0
0.1875 0.5 0
0.25 0.5 0
0.25 0.25 0
0.3125 0.25 0
0.25 0.3125 0
0.3125 0.3125 0
0.3125 0.25 0
0.375 0.25 0
0.3125 0.3125 0
0.375 0.3125 0
0.25 0.3125 0
0.3125 0.3125 0
0.25 0.375 0
0.3125 0.375 0
0.3125 0.3125 0
0.375 0.3125 0
0.3125 0.375 0
0.375 0.375 0
0.375 0.25 0
0.4375 0.25 0
0.375 0.3125 0
0.4375 0.3125 0
0.4375 0.25 0
0.5 0.25 0
0.4375 0.3125 0
0.5 0.3125 0
0.375 0.3125 0
0.4375 0.3125 0
0.375 0.375 0
0.4375 0.375 0
0.4375 0.3125 0
0.5 0.3125 0
0.4375 0.375 0
0.5 0.375 0
0.25 0.375 0
0.3125 0.375 0
0.25 0.4375 0
0.3125 0.4375 0
0.3125 0.375 0
0.375 0.375 0
0.3125 0.4375 0
0.375 0.4375 0
0.25 0.4375 0
0.3125 0.4375 0
0.25 0.5 0
0.3125 0.5 0
0.3125 0.4375 0
0.375 0.4375 0
0.3125 0.5 0
0.375 0.5 0
0.375 0.375 0
0.4375 0.375 0
0.375 0.4375 0
0.4375 0.4375 0
0.4375 0.375 0
0.5 0.375 0
0.4375 0.4375 0
0.5 0.4375 0
0.375 0.4375 0
0.4375 0.4375 0
0.375 0.5 0
0.4375 0.5 0
0.4375 0.4375 0
0.5 0.4375 0
0.4375 0.5 0
0.5 0.5 0
0.5 0 0
0.5625 0 0
0.5 0.0625 0
0.5625 0.0625 0
0.5625 0 0
0.625 0 0
0.5625 0.0625 0
0.625 0.0625 0
0.5 0.0625 0
0.5625 0.0625 0
0.5 0.125 0
0.5625 0.125 0
0.5625 0.0625 0
0.625 0.0625 0
0.5625 0.125 0
0.625 0.125 0
0.625 0 0
0.6875 0 0
0.625 0.0625 0
0.6875 0.0625 0
0.6875 0 0
0.75 0 0
0.6875 0.0625 0
0.75 0.0625 0
0.625 0.0625 0
0.6875 0.0625 0
0.625 0.125 0
0.6875 0.125 0
0.6875 0.0625 0
0.75 0.0625 0
0.6875 0.125 0
0.75 0.125 0
0.5 0.125 0
0.5625 0.125 0
0.5 0.1875 0
0.5625 0.1875 0
0.5625 0.125 0
0.625 0.125 0
0.5625 0.1875 0
0.625 0.1875 0
0.5 0.1875 0
0.5625 0.1875 0
0.5 0.25 0
0.5625 0.25 0
0.5625 0.1875 0
0.625 0.1875 0
0.5625 0.25 0
0.625 0.25 0
0.625 0.125 0
0.6875 0.125 0
0.625 0.1875 0
0.6875 0.1875 0
0.6875 0.125 0
0.75 0.125 0
0.6875 0.1875 0
0.75 0.1875 0
0.625 0.1875 0
0.6875 0.1875 0
0.625 0.25 0
0.6875 0.25 0
0.6875 0.1875 0
0.75 0.1875 0
0.6875 0.25 0
0.75 0.25 0
0.75 0 0
0.8125 0 0
0.75 0.0625 0
0.8125 0.0625 0
0.8125 0 0
0.875 0 0
0.8125 0.0625 0
0.875 0.0625 0
0.75 0.0625 0
0.8125 0.0625 0
0.75 0.125 0
0.8125 0.125 0
0.8125 0.0625 0
0.875 0.0625 0
0.8125 0.125 0
0.875 0.125 0
0.875 0 0
0.9375 0 0
0.875 0.0625 0
0.9375 0.0625 0
0.9375 0 0
1 0 0
0.9375 0.0625 0
1 0.0625 0
0.875 0.0625 0
0.9375 0.0625 0
0.875 0.125 0
0.9375 0.125 0
0.9375 0.0625 0
1 0.0625 0
0.9375 0.125 0
1 0.125 0
0.75 0.125 0
0.8125 0.125 0
0.75 0.1875 0
0.8125 0.1875 0
0.8125 0.125 0
0.875 0.125 0
0.8125 0.1875 0
0.875 0.1875 0
0.75 0.1875 0
0.8125 0.1875 0
0.75 0.25 0
0.8125 0.25 0
0.8125 0.1875 0
0.875 0.1875 0
0.8125 0.25 0
0.875 0.25 0
0.875 0.125 0
0.9375 0.125 0
0.875 0.1875 0
0.9375 0.1875 0
0.9375 0.125 0
1 0.125 0
0.9375 0.1875 0
1 0.1875 0
0.875 0.1875 0
0.9375 0.1875 0
0.875 0.25 0
0.9375 0.25 0
0.9375 0.1875 0
1 0.1875 0
0.9375 0.25 0
1 0.25 0
0.5 0.25 0
0.5625 0.25 0
0.5 0.3125 0
0.5625 0.3125 0
0.5625 0.25 0
0.625 0.25 0
0.5625 0.3125 0
0.625 0.3125 0
0.5 0.3125 0
0.5625 0.3125 0
0.5 0.375 0
0.5625 0.375 0
0.5625 0.3125 0
0.625 0.3125 0
0.5625 0.375 0
0.625 0.375 0
0.625 0.25 0
0.6875 0.25 0
0.625 0.3125 0
0.6875 0.3125 0
0.6875 0.25 0
0.75 0.25 0
0.6875 0.3125 0
0.75 0.3125 0
0.625 0.3125 0
0.6875 0.3125 0
0.625 0.375 0
0.6875 0.375 0
0.6875 0.3125 0
0.75 0.3125 0
0.6875 0.375 0
0.75 0.375 0
0.5 0.375 0
0.5625 0.375 0
0.5 0.4375 0
0.5625 0.4375 0
0.5625 0.375 0
0.625 0.375 0
0.5625 0.4375 0
0.625 0.4375 0
0.5 0.4375 0
0.5625 0.4375 0
0.5 0.5 0
0.5625 0.5 0
0.5625 0.4375 0
0.625 0.4375 0
0.5625 0.5 0
0.625 0.5 0
0.625 0.375 0
0.6875 0.375 0
0.625 0.4375 0
0.6875 0.4375 0
0.6875 0.375 0
0.75 0.375 0
0.6875 0.4375 0
0.75 0.4375 0
0.625 0.4375 0
0.6875 0.4375 0
0.625 0.5 0
0.6875 0.5 0
0.6875 0.4375 0
0.75 0.4375 0
0.6875 0.5 0
0.75 0.5 0
0.75 0.25 0
0.8125 0.25 0
0.75 0.3125 0
0.8125 0.3125 0
0.8125 0.25 0
0.875 0.25 0
0.8125 0.3125 0
0.875 0.3125 0
0.75 0.3125 0
0.8125 0.3125 0
0.75 0.375 0
0.8125 0.375 0
0.8125 0.3125 0
0.875 0.3125 0
0.8125 0.375 0
0.875 0.375 0
0.875 0.25 0
0.9375 0.25 0
0.875 0.3125 0
0.9375 0.3125 0
0.9375 0.25 0
1 0.25 0
0.9375 0.3125 0
1 0.3125 0
0.875 0.3125 0
0.9375 0.3125 0
0.875 0.375 0
0.9375 0.375 0
0.9375 0.3125 0
1 0.3125 0
0.9375 0.375 0
1 0.375 0
0.75 0.375 0
0.8125 0.375 0
0.75 0.4375 0
0.8125 0.4375 0
0.8125 0.375 0
0.875 0.375 0
0.8125 0.4375 0
0.875 0.4375 0
0.75 0.4375 0
0.8125 0.4375 0
0.75 0.5 0
0.8125 0.5 0
0.8125 0.4375 0
0.875 0.4375 0
0.8125 0.5 0
0.875 0.5 0
0.875 0.375 0
0.9375 0.375 0
0.875 0.4375 0
0.9375 0.4375 0
0.9375 0.375 0
1 0.375 0
0.9375 0.4375 0
1 0.4375 0
0.875 0.4375 0
0.9375 0.4375 0
0.875 0.5 0
0.9375 0.5 0
0.9375 0.4375 0
1 0.4375 0
0.9375 0.5 0
1 0.5 0
1 0 0
1.0625 0 0
1 0.0625 0
1.0625 0.0625 0
1.0625 0 0
1.125 0 0
1.0625 0.0625 0
1.125 0.0625 0
1 0.0625 0
1.0625 0.0625 0
1 0.125 0
1.0625 0.125 0
1.0625 0.0625 0
1.125 0.0625 0
1.0625 0.125 0
1.125 0.125 0
1.125 0 0
1.1875 0 0
1.125 0.0625 0
1.1875 0.0625 0
1.1875 0 0
1.25 0 0
1.1875 0.0625 0
1.25 0.0625 0
1.125 0.0625 0
1.1875 0.0625 0
1.125 0.125 0
1.1875 0.125 0
1.1875 0.0625 0
1.25 0.0625 0
1.1875 0.125 0
1.25 0.125 0
1 0.125 0
1.0625 0.125 0
1 0.1875 0
1.0625 0.1875 0
1.0625 0.125 0
1.125 0.125 0
1.0625 0.1875 0
1.125 0.1875 0
1 0.1875 0
1.0625 0.1875 0
1 0.25 0
1.0625 0.25 0
1.0625 0.1875 0
1.125 0.1875 0
1.0625 0.25 0
1.125 0.25 0
1.125 0.125 0
1.1875 0.125 0
1.125 0.1875 0
1.1875 0.1875 0
1.1875 0.125 0
1.25 0.125 0
1.1875 0.1875 0
1.25 0.1875 0
1.125 0.1875 0
1.1875 0.1875 0
1.125 0.25 0
1.1875 0.25 0
1.1875 0.1875 0
1.25 0.1875 0
1.1875 0.25 0
1.25 0.25 0
1.25 0 0
1.3125 0 0
1.25 0.0625 0
1.3125 0.0625 0
1.3125 0 0
1.375 0 0
1.3125 0.0625 0
1.375 0.0625 0
1.25 0.0625 0
1.3125 0.0625 0
1.25 0.125 0
1.3125 0.125 0
1.3125 0.0625 0
1.375 0.0625 0
1.3125 0.125 0
1.375 0.125 0
1.375 0 0
1.4375 0 0
1.375 0.0625 0
1.4375 0.0625 0
1.4375 0 0
1.5 0 0
1.4375 0.0625 0
1.5 0.0625 0
1.375 0.0625 0
1.4375 0.0625 0
1.375 0.125 0
1.4375 0.125 0
1.4375 0.0625 0
1.5 0.0625 0
1.4375 0.125 0
1.5 0.125 0
1.25 0.125 0
1.3125 0.125 0
1.25 0.1875 0
1.3125 0.1875 0
1.3125 0.125 0
1.375 0.125 0
1.3125 0.1875 0
1.375 0.1875 0
1.25 0.1875 0
1.3125 0.1875 0
1.25 0.25 0
1.3125 0.25 0
1.3125 0.1875 0
1.375 0.1875 0
1.3125 0.25 0
1.375 0.25 0
1.375 0.125 0
1.4375 0.125 0
1.375 0.1875 0
1.4375 0.1875 0
1.4375 0.125 0
1.5 0.125 0
1.4375 0.1875 0
1.5 0.1875 0
1.375 0.1875 0
1.4375 0.1875 0
1.375 0.25 0
1.4375 0.25 0
1.4375 0.1875 0
1.5 0.1875 0
1.4375 0.25 0
1.5 0.25 0
1 0.25 0
1.0625 0.25 0
1 0.3125 0
1.0625 0.3125 0
1.0625 0.25 0
1.125 0.25 0
1.0625 0.3125 0
1.125 0.3125 0
1 0.3125 0
1.0625 0.3125 0
1 0.375 0
1.0625 0.375 0
1.0625 0.3125 0
1.125 0.3125 0
1.0625 0.375 0
1.125 0.375 0
1.125 0.25 0
1.1875 0.25 0
1.125 0.3125 0
1.1875 0.3125 0
1.1875 0.25 0
1.25 0.25 0
1.1875 0.3125 0
1.25 0.3125 0
1.125 0.3125 0
1.1875 0.3125 0
1.125 0.375 0
1.1875 0.375 0
1.1875 0.3125 0
1.25 0.3125 0
1.1875 0.375 0
1.25 0.375 0
1 0.375 0
1.0625 0.375 0
1 0.4375 0
1.0625 0.4375 0
1.0625 0.375 0
1.125 0.375 0
1.0625 0.4375 0
1.125 0.4375 0
1 0.4375 0
1.0625 0.4375 0
1 0.5 0
1.0625 0.5 0
1.0625 0.4375 0
1.125 0.4375 0
1.0625 0.5 0
1.125 0.5 0
1.125 0.375 0
1.1875 0.375 0
1.125 0.4375 0
1.1875 0.4375 0
1.1875 0.375 0
1.25 0.375 0
1.1875 0.4375 0
1.25 0.4375 0
1.125 0.4375 0
1.1875 0.4375 0
1.125 0.5 0
1.1875 0.5 0
1.1875 0.4375 0
1.25 0.4375 0
1.1875 0.5 0
1.25 0.5 0
[...]
POINT_DATA 2048
SCALARS x_displacement double 1
LOOKUP_TABLE default
0 2.38712 0 1.00486 2.38712 4.27269 1.00486 2.15733 0 1.00486 0 0.0808416 1.00486 2.15733 0.0808416 0.408999 4.27269 5.75524 2.15733 3.22157 5.75524 6.87684 3.22157 4.19905 2.15733 3.22157 0.408999 1.04036 3.22157 4.19905 1.04036 1.86172 0 0.0808416 0 -0.848585 0.0808416 0.408999 -0.848585 -1.2588 0 -0.848585 0 -1.8301 -0.848585 -1.2588 -1.8301 -2.88764 0.408999 1.04036 -1.2588 -1.04878 1.04036 1.86172 -1.04878 -0.322718 -1.2588 -1.04878 -2.88764 -3.08677 -1.04878 -0.322718 -3.08677 -2.29056 6.87684 7.72725 4.19905 5.05715 7.72725 8.44122 5.05715 5.77724 4.19905 5.05715 1.86172 2.66966 5.05715 5.77724 2.66966 3.328 8.44122 9.13718 5.77724 6.43456 9.13718 9.9302 6.43456 7.15605 5.77724 6.43456 3.328 3.8716 6.43456 7.15605 3.8716 4.40434 1.86172 2.66966 -0.322718 0.547178 2.66966 3.328 0.547178 1.22259 -0.322718 0.547178 -2.29056 -1.19978 0.547178 1.22259 -1.19978 -0.393189 3.328 3.8716 1.22259 1.71126 3.8716 4.40434 1.71126 2.09468 1.22259 1.71126 -0.393189 0.177214 1.71126 2.09468 0.177214 0.623969 0 -1.8301 0 -2.89382 -1.8301 -2.88764 -2.89382 -4.35101 0 -2.89382 0 -1.89491 -2.89382 -4.35101 -1.89491 -3.69438 -2.88764 -3.08677 -4.35101 -5.00164 -3.08677 -2.29056 -5.00164 -3.87809 -4.35101 -5.00164 -3.69438 -3.75079 -5.00164 -3.87809 -3.75079 -3.29966 0 -1.89491 0 -0.635412 -1.89491 -3.69438 -0.635412 -1.34083 0 -0.635412 0 1.62406e-11 -0.635412 -1.34083 1.62406e-11 -3.77765e-11 -3.69438 -3.75079 -1.34083 -2.24185 -3.75079 -3.29966 -2.24185 -3.66137 -1.34083 -2.24185 -3.77765e-11 3.0471e-10 -2.24185 -3.66137 3.0471e-10 2.30422e-10 -2.29056 -1.19978 -3.87809 -2.38376 -1.19978 -0.393189 -2.38376 -1.36635 -3.87809 -2.38376 -3.29966 -2.69468 -2.38376 -1.36635 -2.69468 -1.78529 -0.393189 0.177214 -1.36635 -0.668331 0.177214 0.623969 -0.668331 -0.0921483 -1.36635 -0.668331 -1.78529 -1.08997 -0.668331 -0.0921483 -1.08997 -0.491574 -3.29966 -2.69468 -3.66137 -2.40386 -2.69468 -1.78529 -2.40386 -1.63734 -3.66137 -2.40386 2.30422e-10 -4.70433e-11 -2.40386 -1.63734 -4.70433e-11 -9.85371e-11 -1.78529 -1.08997 -1.63734 -1.1862 -1.08997 -0.491574 -1.1862 -0.602938 -1.63734 -1.1862 -9.85371e-11 -5.93426e-11 -1.1862 -0.602938 -5.93426e-11 -3.55575e-11 9.9302 10.8508 7.15605 8.01204 10.8508 11.833 8.01204 9.00554 7.15605 8.01204 4.40434 5.10849 8.01204 9.00554 5.10849 6.05524 11.833 12.8293 9.00554 9.99669 12.8293 13.8377 9.99669 10.9719 9.00554 9.99669 6.05524 7.12979 9.99669 10.9719 7.12979 8.13006 4.40434 5.10849 2.09468 2.51642 5.10849 6.05524 2.51642 3.16 2.09468 2.51642 0.623969 1.04342 2.51642 3.16 1.04342 1.52003 6.05524 7.12979 3.16 4.22814 7.12979 8.13006 4.22814 5.48583 3.16 4.22814 1.52003 2.29903 4.22814 5.48583 2.29903 3.8921 13.8377 14.8894 10.9719 11.9205 14.8894 15.9912 11.9205 12.8039 10.9719 11.9205 8.13006 9.03291 11.9205 12.8039 9.03291 9.74221 15.9912 17.0457 12.8039 13.5881 17.0457 17.9677 13.5881 14.2763 12.8039 13.5881 9.74221 10.3149 13.5881 14.2763 10.3149 10.8595 8.13006 9.03291 5.48583 6.44738 9.03291 9.74221 6.44738 6.95643 5.48583 6.44738 3.8921 4.57703 6.44738 6.95643 4.57703 4.78353 9.74221 10.3149 6.95643 7.28151 10.3149 10.8595 7.28151 7.59091 6.95643 7.28151 4.78353 4.8477 7.28151 7.59091 4.8477 4.78757 0.623969 1.04342 -0.0921483 0.446153 1.04342 1.52003 0.446153 1.06624 -0.0921483 0.446153 -0.491574 0.0858732 0.446153 1.06624 0.0858732 0.692114 1.52003 2.29903 1.06624 1.94389 2.29903 3.8921 1.94389 2.88349 1.06624 1.94389 0.692114 1.28801 1.94389 2.88349 1.28801 1.70359 -0.491574 0.0858732 -0.602938 -0.0997552 0.0858732 0.692114 -0.0997552 0.317012 -0.602938 -0.0997552 -3.55575e-11 -2.33515e-11 -0.0997552 0.317012 -2.33515e-11 -1.78786e-11 0.692114 1.28801 0.317012 0.606345 1.28801 1.70359 0.606345 0.752356 0.317012 0.606345 -1.78786e-11 -1.55706e-11 0.606345 0.752356 -1.55706e-11 -1.57106e-11 3.8921 4.57703 2.88349 3.18186 4.57703 4.78353 3.18186 3.18043 2.88349 3.18186 1.70359 1.8162 3.18186 3.18043 1.8162 1.74761 4.78353 4.8477 3.18043 3.09844 4.8477 4.78757 3.09844 2.90233 3.18043 3.09844 1.74761 1.64531 3.09844 2.90233 1.64531 1.5204 1.70359 1.8162 0.752356 0.763625 1.8162 1.74761 0.763625 0.675224 0.752356 0.763625 -1.57106e-11 -1.90328e-11 0.763625 0.675224 -1.90328e-11 -2.36927e-11 1.74761 1.64531 0.675224 0.536186 1.64531 1.5204 0.536186 0.328904 0.675224 0.536186 -2.36927e-11 -2.90922e-11 0.536186 0.328904 -2.90922e-11 -3.57003e-11 17.9677 18.7317 14.2763 14.9243 18.7317 19.3497 14.9243 15.5718 14.2763 14.9243 10.8595 11.4781 14.9243 15.5718 11.4781 12.1883 19.3497 19.8993 15.5718 16.2301 19.8993 20.4393 16.2301 16.9247 15.5718 16.2301 12.1883 12.9288 16.2301 16.9247 12.9288 13.7148 10.8595 11.4781 7.59091 8.06431 11.4781 12.1883 8.06431 8.82013 7.59091 8.06431 4.78757 4.73924 8.06431 8.82013 4.73924 5.36574 12.1883 12.9288 8.82013 9.66984 12.9288 13.7148 9.66984 10.5258 8.82013 9.66984 5.36574 6.30994 9.66984 10.5258 6.30994 7.24098 20.4393 21.0378 16.9247 17.6649 21.0378 21.5879 17.6649 18.4303 16.9247 17.6649 13.7148 14.5499 17.6649 18.4303 14.5499 15.4481 21.5879 21.9732 18.4303 19.329 21.9732 22.345 19.329 20.4049 18.4303 19.329 15.4481 16.3978 19.329 20.4049 16.3978 17.4579 13.7148 14.5499 10.5258 11.392 14.5499 15.4481 11.392 12.3239 10.5258 11.392 7.24098 8.19908 11.392 12.3239 8.19908 9.18237 15.4481 16.3978 12.3239 13.3133 16.3978 17.4579 13.3133 14.3399 12.3239 13.3133 9.18237 10.1277 13.3133 14.3399 10.1277 11.077 4.78757 4.73924 2.90233 2.16265 4.73924 5.36574 2.16265 1.85241 2.90233 2.16265 1.5204 1.26607 2.16265 1.85241 1.26607 -1.23706 5.36574 6.30994 1.85241 2.98252 6.30994 7.24098 2.98252 3.98104 1.85241 2.98252 -1.23706 -0.170815 2.98252 3.98104 -0.170815 0.752967 1.5204 1.26607 0.328904 -0.411539 1.26607 -1.23706 -0.411539 0.811922 0.328904 -0.411539 -3.57003e-11 -1.30305e-10 -0.411539 0.811922 -1.30305e-10 1.06379e-08 -1.23706 -0.170815 0.811922 -1.20424 -0.170815 0.752967 -1.20424 -1.56659 0.811922 -1.20424 1.06379e-08 6.16104e-09 -1.20424 -1.56659 6.16104e-09 3.15927e-09 7.24098 8.19908 3.98104 5.00743 8.19908 9.18237 5.00743 5.95782 3.98104 5.00743 0.752967 1.83404 5.00743 5.95782 1.83404 2.74629 9.18237 10.1277 5.95782 6.88901 10.1277 11.077 6.88901 7.79349 5.95782 6.88901 2.74629 3.61359 6.88901 7.79349 3.61359 4.39558 0.752967 1.83404 -1.56659 -1.03122 1.83404 2.74629 -1.03122 -0.472932 -1.56659 -1.03122 3.15927e-09 -1.07929e-10 -1.03122 -0.472932 -1.07929e-10 -6.37708e-11 2.74629 3.61359 -0.472932 0.368644 3.61359 4.39558 0.368644 1.13773 -0.472932 0.368644 -6.37708e-11 2.85209e-11 0.368644 1.13773 2.85209e-11 3.51052e-11 22.345 22.191 20.4049 21.281 22.191 25.1385 21.281 22.1762 20.4049 21.281 17.4579 18.58 21.281 22.1762 18.58 19.8808 25.1385 27.2736 22.1762 22.217 27.2736 28.5813 22.217 23.8447 22.1762 22.217 19.8808 20.9256 22.217 23.8447 20.9256 21.7662 17.4579 18.58 14.3399 15.3969 18.58 19.8808 15.3969 16.5083 14.3399 15.3969 11.077 12.0744 15.3969 16.5083 12.0744 13.0341 19.8808 20.9256 16.5083 17.5252 20.9256 21.7662 17.5252 18.5455 16.5083 17.5252 13.0341 13.9644 17.5252 18.5455 13.9644 14.8945 28.5813 29.4304 23.8447 25.3063 29.4304 30.171 25.3063 26.1957 23.8447 25.3063 21.7662 22.1905 25.3063 26.1957 22.1905 22.8058 30.171 30.4572 26.1957 26.5228 30.4572 30.4803 26.5228 26.5256 26.1957 26.5228 22.8058 23.2754 26.5228 26.5256 23.2754 23.1897 21.7662 22.1905 18.5455 19.4433 22.1905 22.8058 19.4433 20.0156 18.5455 19.4433 14.8945 15.9325 19.4433 20.0156 15.9325 17.3395 22.8058 23.2754 20.0156 21.1389 23.2754 23.1897 21.1389 21.9229 20.0156 21.1389 17.3395 19.0435 21.1389 21.9229 19.0435 19.7661 11.077 12.0744 7.79349 8.65367 12.0744 13.0341 8.65367 9.46686 7.79349 8.65367 4.39558 5.15619 8.65367 9.46686 5.15619 5.90666 13.0341 13.9644 9.46686 10.3085 13.9644 14.8945 10.3085 11.216 9.46686 10.3085 5.90666 6.70966 10.3085 11.216 6.70966 7.56243 4.39558 5.15619 1.13773 1.81042 5.15619 5.90666 1.81042 2.51174 1.13773 1.81042 3.51052e-11 2.68913e-11 1.81042 2.51174 2.68913e-11 2.74333e-11 5.90666 6.70966 2.51174 3.22847 6.70966 7.56243 3.22847 3.87358 2.51174 3.22847 2.74333e-11 2.63586e-11 3.22847 3.87358 2.63586e-11 2.77156e-11 14.8945 15.9325 11.216 12.2941 15.9325 17.3395 12.2941 13.5877 11.216 12.2941 7.56243 8.49186 12.2941 13.5877 8.49186 9.46231 17.3395 19.0435 13.5877 14.7674 19.0435 19.7661 14.7674 15.1826 13.5877 14.7674 9.46231 10.1946 14.7674 15.1826 10.1946 10.4174 7.56243 8.49186 3.87358 4.42035 8.49186 9.46231 4.42035 4.8952 3.87358 4.42035 2.77156e-11 2.84763e-11 4.42035 4.8952 2.84763e-11 2.93526e-11 9.46231 10.1946 4.8952 5.36872 10.1946 10.4174 5.36872 5.45666 4.8952 5.36872 2.93526e-11 2.97248e-11 5.36872 5.45666 2.97248e-11 3.05399e-11 0 1.62406e-11 0 0.635412 1.62406e-11 -3.77765e-11 0.635412 1.34083 0 0.635412 0 1.89491 0.635412 1.34083 1.89491 3.69438 -3.77765e-11 3.0471e-10 1.34083 2.24185 3.0471e-10 2.30422e-10 2.24185 3.66137 1.34083 2.24185 3.69438 3.75079 2.24185 3.66137 3.75079 3.29966 0 1.89491 0 2.89382 1.89491 3.69438 2.89382 4.35101 0 2.89382 0 1.8301 2.89382 4.35101 1.8301 2.88764 3.69438 3.75079 4.35101 5.00164 3.75079 3.29966 5.00164 3.87809 4.35101 5.00164 2.88764 3.08677 5.00164 3.87809 3.08677 2.29056 2.30422e-10 -4.70433e-11 3.66137 2.40386 -4.70433e-11 -9.85371e-11 2.40386 1.63734 3.66137 2.40386 3.29966 2.69468 2.40386 1.63734 2.69468 1.78529 -9.85371e-11 -5.93426e-11 1.63734 1.1862 -5.93426e-11 -3.55575e-11 1.1862 0.602938 1.63734 1.1862 1.78529 1.08997 1.1862 0.602938 1.08997 0.491574 3.29966 2.69468 3.87809 2.38376 2.69468 1.78529 2.38376 1.36635 3.87809 2.38376 2.29056 1.19978 2.38376 1.36635 1.19978 0.393189 1.78529 1.08997 1.36635 0.668331 1.08997 0.491574 0.668331 0.0921483 1.36635 0.668331 0.393189 -0.177214 0.668331 0.0921483 -0.177214 -0.623969 0 1.8301 0 0.848585 1.8301 2.88764 0.848585 1.2588 0 0.848585 0 -0.0808416 0.848585 1.2588 -0.0808416 -0.408999 2.88764 3.08677 1.2588 1.04878 3.08677 2.29056 1.04878 0.322718 1.2588 1.04878 -0.408999 -1.04036 1.04878 0.322718 -1.04036 -1.86172 0 -0.0808416 0 -1.00486 -0.0808416 -0.408999 -1.00486 -2.15733 0 -1.00486 0 -2.38712 -1.00486 -2.15733 -2.38712 -4.27269 -0.408999 -1.04036 -2.15733 -3.22157 -1.04036 -1.86172 -3.22157 -4.19905 -2.15733 -3.22157 -4.27269 -5.75524 -3.22157 -4.19905 -5.75524 -6.87684 2.29056 1.19978 0.322718 -0.547178 1.19978 0.393189 -0.547178 -1.22259 0.322718 -0.547178 -1.86172 -2.66966 -0.547178 -1.22259 -2.66966 -3.328 0.393189 -0.177214 -1.22259 -1.71126 -0.177214 -0.623969 -1.71126 -2.09468 -1.22259 -1.71126 -3.328 -3.8716 -1.71126 -2.09468 -3.8716 -4.40434 -1.86172 -2.66966 -4.19905 -5.05715 -2.66966 -3.328 -5.05715 -5.77724 -4.19905 -5.05715 -6.87684 -7.72725 -5.05715 -5.77724 -7.72725 -8.44122 -3.328 -3.8716 -5.77724 -6.43456 -3.8716 -4.40434 -6.43456 -7.15605 -5.77724 -6.43456 -8.44122 -9.13718 -6.43456 -7.15605 -9.13718 -9.9302 -3.55575e-11 -2.33515e-11 0.602938 0.0997552 -2.33515e-11 -1.78786e-11 0.0997552 -0.317012 0.602938 0.0997552 0.491574 -0.0858732 0.0997552 -0.317012 -0.0858732 -0.692114 -1.78786e-11 -1.55706e-11 -0.317012 -0.606345 -1.55706e-11 -1.57106e-11 -0.606345 -0.752356 -0.317012 -0.606345 -0.692114 -1.28801 -0.606345 -0.752356 -1.28801 -1.70359 0.491574 -0.0858732 0.0921483 -0.446153 -0.0858732 -0.692114 -0.446153 -1.06624 0.0921483 -0.446153 -0.623969 -1.04342 -0.446153 -1.06624 -1.04342 -1.52003 -0.692114 -1.28801 -1.06624 -1.94389 -1.28801 -1.70359 -1.94389 -2.88349 -1.06624 -1.94389 -1.52003 -2.29903 -1.94389 -2.88349 -2.29903 -3.8921 -1.57106e-11 -1.90328e-11 -0.752356 -0.763625 -1.90328e-11 -2.36927e-11 -0.763625 -0.675224 -0.752356 -0.763625 -1.70359 -1.8162 -0.763625 -0.675224 -1.8162 -1.74761 -2.36927e-11 -2.90922e-11 -0.675224 -0.536186 -2.90922e-11 -3.57003e-11 -0.536186 -0.328904 -0.675224 -0.536186 -1.74761 -1.64531 -0.536186 -0.328904 -1.64531 -1.5204 -1.70359 -1.8162 -2.88349 -3.18186 -1.8162 -1.74761 -3.18186 -3.18043 -2.88349 -3.18186 -3.8921 -4.57703 -3.18186 -3.18043 -4.57703 -4.78353 -1.74761 -1.64531 -3.18043 -3.09844 -1.64531 -1.5204 -3.09844 -2.90233 -3.18043 -3.09844 -4.78353 -4.8477 -3.09844 -2.90233 -4.8477 -4.78757 -0.623969 -1.04342 -2.09468 -2.51642 -1.04342 -1.52003 -2.51642 -3.16 -2.09468 -2.51642 -4.40434 -5.10849 -2.51642 -3.16 -5.10849 -6.05524 -1.52003 -2.29903 -3.16 -4.22814 -2.29903 -3.8921 -4.22814 -5.48583 -3.16 -4.22814 -6.05524 -7.12979 -4.22814 -5.48583 -7.12979 -8.13006 -4.40434 -5.10849 -7.15605 -8.01204 -5.10849 -6.05524 -8.01204 -9.00554 -7.15605 -8.01204 -9.9302 -10.8508 -8.01204 -9.00554 -10.8508 -11.833 -6.05524 -7.12979 -9.00554 -9.99669 -7.12979 -8.13006 -9.99669 -10.9719 -9.00554 -9.99669 -11.833 -12.8293 -9.99669 -10.9719 -12.8293 -13.8377 -3.8921 -4.57703 -5.48583 -6.44738 -4.57703 -4.78353 -6.44738 -6.95643 -5.48583 -6.44738 -8.13006 -9.03291 -6.44738 -6.95643 -9.03291 -9.74221 -4.78353 -4.8477 -6.95643 -7.28151 -4.8477 -4.78757 -7.28151 -7.59091 -6.95643 -7.28151 -9.74221 -10.3149 -7.28151 -7.59091 -10.3149 -10.8595 -8.13006 -9.03291 -10.9719 -11.9205 -9.03291 -9.74221 -11.9205 -12.8039 -10.9719 -11.9205 -13.8377 -14.8894 -11.9205 -12.8039 -14.8894 -15.9912 -9.74221 -10.3149 -12.8039 -13.5881 -10.3149 -10.8595 -13.5881 -14.2763 -12.8039 -13.5881 -15.9912 -17.0457 -13.5881 -14.2763 -17.0457 -17.9677 -3.57003e-11 -1.30305e-10 -0.328904 0.411539 -1.30305e-10 1.06379e-08 0.411539 -0.811922 -0.328904 0.411539 -1.5204 -1.26607 0.411539 -0.811922 -1.26607 1.23706 1.06379e-08 6.16104e-09 -0.811922 1.20424 6.16104e-09 3.15927e-09 1.20424 1.56659 -0.811922 1.20424 1.23706 0.170815 1.20424 1.56659 0.170815 -0.752967 -1.5204 -1.26607 -2.90233 -2.16265 -1.26607 1.23706 -2.16265 -1.85241 -2.90233 -2.16265 -4.78757 -4.73924 -2.16265 -1.85241 -4.73924 -5.36574 1.23706 0.170815 -1.85241 -2.98252 0.170815 -0.752967 -2.98252 -3.98104 -1.85241 -2.98252 -5.36574 -6.30994 -2.98252 -3.98104 -6.30994 -7.24098 3.15927e-09 -1.07929e-10 1.56659 1.03122 -1.07929e-10 -6.37708e-11 1.03122 0.472932 1.56659 1.03122 -0.752967 -1.83404 1.03122 0.472932 -1.83404 -2.74629 -6.37708e-11 2.85209e-11 0.472932 -0.368644 2.85209e-11 3.51052e-11 -0.368644 -1.13773 0.472932 -0.368644 -2.74629 -3.61359 -0.368644 -1.13773 -3.61359 -4.39558 -0.752967 -1.83404 -3.98104 -5.00743 -1.83404 -2.74629 -5.00743 -5.95782 -3.98104 -5.00743 -7.24098 -8.19908 -5.00743 -5.95782 -8.19908 -9.18237 -2.74629 -3.61359 -5.95782 -6.88901 -3.61359 -4.39558 -6.88901 -7.79349 -5.95782 -6.88901 -9.18237 -10.1277 -6.88901 -7.79349 -10.1277 -11.077 -4.78757 -4.73924 -7.59091 -8.06431 -4.73924 -5.36574 -8.06431 -8.82013 -7.59091 -8.06431 -10.8595 -11.4781 -8.06431 -8.82013 -11.4781 -12.1883 -5.36574 -6.30994 -8.82013 -9.66984 -6.30994 -7.24098 -9.66984 -10.5258 -8.82013 -9.66984 -12.1883 -12.9288 -9.66984 -10.5258 -12.9288 -13.7148 -10.8595 -11.4781 -14.2763 -14.9243 -11.4781 -12.1883 -14.9243 -15.5718 -14.2763 -14.9243 -17.9677 -18.7317 -14.9243 -15.5718 -18.7317 -19.3497 -12.1883 -12.9288 -15.5718 -16.2301 -12.9288 -13.7148 -16.2301 -16.9247 -15.5718 -16.2301 -19.3497 -19.8993 -16.2301 -16.9247 -19.8993 -20.4393 -7.24098 -8.19908 -10.5258 -11.392 -8.19908 -9.18237 -11.392 -12.3239 -10.5258 -11.392 -13.7148 -14.5499 -11.392 -12.3239 -14.5499 -15.4481 -9.18237 -10.1277 -12.3239 -13.3133 -10.1277 -11.077 -13.3133 -14.3399 -12.3239 -13.3133 -15.4481 -16.3978 -13.3133 -14.3399 -16.3978 -17.4579 -13.7148 -14.5499 -16.9247 -17.6649 -14.5499 -15.4481 -17.6649 -18.4303 -16.9247 -17.6649 -20.4393 -21.0378 -17.6649 -18.4303 -21.0378 -21.5879 -15.4481 -16.3978 -18.4303 -19.329 -16.3978 -17.4579 -19.329 -20.4049 -18.4303 -19.329 -21.5879 -21.9732 -19.329 -20.4049 -21.9732 -22.345 3.51052e-11 2.68913e-11 -1.13773 -1.81042 2.68913e-11 2.74333e-11 -1.81042 -2.51174 -1.13773 -1.81042 -4.39558 -5.15619 -1.81042 -2.51174 -5.15619 -5.90666 2.74333e-11 2.63586e-11 -2.51174 -3.22847 2.63586e-11 2.77156e-11 -3.22847 -3.87358 -2.51174 -3.22847 -5.90666 -6.70966 -3.22847 -3.87358 -6.70966 -7.56243 -4.39558 -5.15619 -7.79349 -8.65367 -5.15619 -5.90666 -8.65367 -9.46686 -7.79349 -8.65367 -11.077 -12.0744 -8.65367 -9.46686 -12.0744 -13.0341 -5.90666 -6.70966 -9.46686 -10.3085 -6.70966 -7.56243 -10.3085 -11.216 -9.46686 -10.3085 -13.0341 -13.9644 -10.3085 -11.216 -13.9644 -14.8945 2.77156e-11 2.84763e-11 -3.87358 -4.42035 2.84763e-11 2.93526e-11 -4.42035 -4.8952 -3.87358 -4.42035 -7.56243 -8.49186 -4.42035 -4.8952 -8.49186 -9.46231 2.93526e-11 2.97248e-11 -4.8952 -5.36872 2.97248e-11 3.05399e-11 -5.36872 -5.45666 -4.8952 -5.36872 -9.46231 -10.1946 -5.36872 -5.45666 -10.1946 -10.4174 -7.56243 -8.49186 -11.216 -12.2941 -8.49186 -9.46231 -12.2941 -13.5877 -11.216 -12.2941 -14.8945 -15.9325 -12.2941 -13.5877 -15.9325 -17.3395 -9.46231 -10.1946 -13.5877 -14.7674 -10.1946 -10.4174 -14.7674 -15.1826 -13.5877 -14.7674 -17.3395 -19.0435 -14.7674 -15.1826 -19.0435 -19.7661 -11.077 -12.0744 -14.3399 -15.3969 -12.0744 -13.0341 -15.3969 -16.5083 -14.3399 -15.3969 -17.4579 -18.58 -15.3969 -16.5083 -18.58 -19.8808 -13.0341 -13.9644 -16.5083 -17.5252 -13.9644 -14.8945 -17.5252 -18.5455 -16.5083 -17.5252 -19.8808 -20.9256 -17.5252 -18.5455 -20.9256 -21.7662 -17.4579 -18.58 -20.4049 -21.281 -18.58 -19.8808 -21.281 -22.1762 -20.4049 -21.281 -22.345 -22.191 -21.281 -22.1762 -22.191 -25.1385 -19.8808 -20.9256 -22.1762 -22.217 -20.9256 -21.7662 -22.217 -23.8447 -22.1762 -22.217 -25.1385 -27.2736 -22.217 -23.8447 -27.2736 -28.5813 -14.8945 -15.9325 -18.5455 -19.4433 -15.9325 -17.3395 -19.4433 -20.0156 -18.5455 -19.4433 -21.7662 -22.1905 -19.4433 -20.0156 -22.1905 -22.8058 -17.3395 -19.0435 -20.0156 -21.1389 -19.0435 -19.7661 -21.1389 -21.9229 -20.0156 -21.1389 -22.8058 -23.2754 -21.1389 -21.9229 -23.2754 -23.1897 -21.7662 -22.1905 -23.8447 -25.3063 -22.1905 -22.8058 -25.3063 -26.1957 -23.8447 -25.3063 -28.5813 -29.4304 -25.3063 -26.1957 -29.4304 -30.171 -22.8058 -23.2754 -26.1957 -26.5228 -23.2754 -23.1897 -26.5228 -26.5256 -26.1957 -26.5228 -30.171 -30.4572 -26.5228 -26.5256 -30.4572 -30.4803 
SCALARS y_displacement double 1
LOOKUP_TABLE default