# vtk DataFile Version 3.0
#This file was generated by the deal.II library on 2016/3/9 at 8:35:56
ASCII
DATASET UNSTRUCTURED_GRID

POINTS 512 double
0 0 0
0.125 0 0
0 0.125 0
0.125 0.125 0
0.125 0 0
0.25 0 0
0.125 0.125 0
0.25 0.125 0
0 0.125 0
0.125 0.125 0
0 0.25 0
0.125 0.25 0
0.125 0.125 0
0.25 0.125 0
0.125 0.25 0
0.25 0.25 0
0.25 0 0
0.375 0 0
0.25 0.125 0
0.375 0.125 0
0.375 0 0
0.5 0 0
0.375 0.125 0
0.5 0.125 0
0.25 0.125 0
0.375 0.125 0
0.25 0.25 0
0.375 0.25 0
0.375 0.125 0
0.5 0.125 0
0.375 0.25 0
0.5 0.25 0
0 0.25 0
0.125 0.25 0
0 0.375 0
0.125 0.375 0
0.125 0.25 0
0.25 0.25 0
0.125 0.375 0
0.25 0.375 0
0 0.375 0
0.125 0.375 0
0 0.5 0
0.125 0.5 0
0.125 0.375 0
0.25 0.375 0
0.125 0.5 0
0.25 0.5 0
0.25 0.25 0
0.375 0.25 0
0.25 0.375 0
0.375 0.375 0
0.375 0.25 0
0.5 0.25 0
0.375 0.375 0
0.5 0.375 0
0.25 0.375 0
0.375 0.375 0
0.25 0.5 0
0.375 0.5 0
0.375 0.375 0
0.5 0.375 0
0.375 0.5 0
0.5 0.5 0
0.5 0 0
0.625 0 0
0.5 0.125 0
0.625 0.125 0
0.625 0 0
0.75 0 0
0.625 0.125 0
0.75 0.125 0
0.5 0.125 0
0.625 0.125 0
0.5 0.25 0
0.625 0.25 0
0.625 0.125 0
0.75 0.125 0
0.625 0.25 0
0.75 0.25 0
0.75 0 0
0.875 0 0
0.75 0.125 0
0.875 0.125 0
0.875 0 0
1 0 0
0.875 0.125 0
1 0.125 0
0.75 0.125 0
0.875 0.125 0
0.75 0.25 0
0.875 0.25 0
0.875 0.125 0
1 0.125 0
0.875 0.25 0
1 0.25 0
0.5 0.25 0
0.625 0.25 0
0.5 0.375 0
0.625 0.375 0
0.625 0.25 0
0.75 0.25 0
0.625 0.375 0
0.75 0.375 0
0.5 0.375 0
0.625 0.375 0
0.5 0.5 0
0.625 0.5 0
0.625 0.375 0
0.75 0.375 0
0.625 0.5 0
0.75 0.5 0
0.75 0.25 0
0.875 0.25 0
0.75 0.375 0
0.875 0.375 0
0.875 0.25 0
1 0.25 0
0.875 0.375 0
1 0.375 0
0.75 0.375 0
0.875 0.375 0
0.75 0.5 0
0.875 0.5 0
0.875 0.375 0
1 0.375 0
0.875 0.5 0
1 0.5 0
1 0 0
1.125 0 0
1 0.125 0
1.125 0.125 0
1.125 0 0
1.25 0 0
1.125 0.125 0
1.25 0.125 0
1 0.125 0
1.125 0.125 0
1 0.25 0
1.125 0.25 0
1.125 0.125 0
1.25 0.125 0
1.125 0.25 0
1.25 0.25 0
1.25 0 0
1.375 0 0
1.25 0.125 0
1.375 0.125 0
1.375 0 0
1.5 0 0
1.375 0.125 0
1.5 0.125 0
1.25 0.125 0
1.375 0.125 0
1.25 0.25 0
1.375 0.25 0
1.375 0.125 0
1.5 0.125 0
1.375 0.25 0
1.5 0.25 0
1 0.25 0
1.125 0.25 0
1 0.375 0
1.125 0.375 0
1.125 0.25 0
1.25 0.25 0
1.125 0.375 0
1.25 0.375 0
1 0.375 0
1.125 0.375 0
1 0.5 0
1.125 0.5 0
1.125 0.375 0
1.25 0.375 0
1.125 0.5 0
1.25 0.5 0
1.25 0.25 0
1.375 0.25 0
1.25 0.375 0
1.375 0.375 0
1.375 0.25 0
1.5 0.25 0
1.375 0.375 0
1.5 0.375 0
1.25 0.375 0
1.375 0.375 0
1.25 0.5 0
1.375 0.5 0
1.375 0.375 0
1.5 0.375 0
1.375 0.5 0
1.5 0.5 0
1.5 0 0
1.625 0 0
1.5 0.125 0
1.625 0.125 0
1.625 0 0
1.75 0 0
1.625 0.125 0
1.75 0.125 0
1.5 0.125 0
1.625 0.125 0
1.5 0.25 0
1.625 0.25 0
1.625 0.125 0
1.75 0.125 0
1.625 0.25 0
1.75 0.25 0
1.75 0 0
1.875 0 0
1.75 0.125 0
1.875 0.125 0
1.875 0 0
2 0 0
1.875 0.125 0
2 0.125 0
1.75 0.125 0
1.875 0.125 0
1.75 0.25 0
1.875 0.25 0
1.875 0.125 0
2 0.125 0
1.875 0.25 0
2 0.25 0
1.5 0.25 0
1.625 0.25 0
1.5 0.375 0
1.625 0.375 0
1.625 0.25 0
1.75 0.25 0
1.625 0.375 0
1.75 0.375 0
1.5 0.375 0
1.625 0.375 0
1.5 0.5 0
1.625 0.5 0
1.625 0.375 0
1.75 0.375 0
1.625 0.5 0
1.75 0.5 0
1.75 0.25 0
1.875 0.25 0
1.75 0.375 0
1.875 0.375 0
1.875 0.25 0
2 0.25 0
1.875 0.375 0
2 0.375 0
1.75 0.375 0
1.875 0.375 0
1.75 0.5 0
1.875 0.5 0
1.875 0.375 0
2 0.375 0
1.875 0.5 0
2 0.5 0
0 0.5 0
0.125 0.5 0
0 0.625 0
0.125 0.625 0
0.125 0.5 0
0.25 0.5 0
0.125 0.625 0
0.25 0.625 0
0 0.625 0
0.125 0.625 0
0 0.75 0
0.125 0.75 0
0.125 0.625 0
0.25 0.625 0
0.125 0.75 0
0.25 0.75 0
0.25 0.5 0
0.375 0.5 0
0.25 0.625 0
0.375 0.625 0
0.375 0.5 0
0.5 0.5 0
0.375 0.625 0
0.5 0.625 0
0.25 0.625 0
0.375 0.625 0
0.25 0.75 0
0.375 0.75 0
0.375 0.625 0
0.5 0.625 0
0.375 0.75 0
0.5 0.75 0
0 0.75 0
0.125 0.75 0
0 0.875 0
0.125 0.875 0
0.125 0.75 0
0.25 0.75 0
0.125 0.875 0
0.25 0.875 0
0 0.875 0
0.125 0.875 0
0 1 0
0.125 1 0
0.125 0.875 0
0.25 0.875 0
0.125 1 0
0.25 1 0
0.25 0.75 0
0.375 0.75 0
0.25 0.875 0
0.375 0.875 0
0.375 0.75 0
0.5 0.75 0
0.375 0.875 0
0.5 0.875 0
0.25 0.875 0
0.375 0.875 0
0.25 1 0
0.375 1 0
0.375 0.875 0
0.5 0.875 0
0.375 1 0
0.5 1 0
0.5 0.5 0
0.625 0.5 0
0.5 0.625 0
0.625 0.625 0
0.625 0.5 0
0.75 0.5 0
0.625 0.625 0
0.75 0.625 0
0.5 0.625 0
0.625 0.625 0
0.5 0.75 0
0.625 0.75 0
0.625 0.625 0
0.75 0.625 0
0.625 0.75 0
0.75 0.75 0
0.75 0.5 0
0.875 0.5 0
0.75 0.625 0
0.875 0.625 0
0.875 0.5 0
1 0.5 0
0.875 0.625 0
1 0.625 0
0.75 0.625 0
0.875 0.625 0
0.75 0.75 0
0.875 0.75 0
0.875 0.625 0
1 0.625 0
0.875 0.75 0
1 0.75 0
0.5 0.75 0
0.625 0.75 0
0.5 0.875 0
0.625 0.875 0
0.625 0.75 0
0.75 0.75 0
0.625 0.875 0
0.75 0.875 0
0.5 0.875 0
0.625 0.875 0
0.5 1 0
0.625 1 0
0.625 0.875 0
0.75 0.875 0
0.625 1 0
0.75 1 0
0.75 0.75 0
0.875 0.75 0
0.75 0.875 0
0.875 0.875 0
0.875 0.75 0
1 0.75 0
0.875 0.875 0
1 0.875 0
0.75 0.875 0
0.875 0.875 0
0.75 1 0
0.875 1 0
0.875 0.875 0
1 0.875 0
0.875 1 0
1 1 0
1 0.5 0
1.125 0.5 0
1 0.625 0
1.125 0.625 0
1.125 0.5 0
1.25 0.5 0
1.125 0.625 0
1.25 0.625 0
1 0.625 0
1.125 0.625 0
1 0.75 0
1.125 0.75 0
1.125 0.625 0
1.25 0.625 0
1.125 0.75 0
1.25 0.75 0
1.25 0.5 0
1.375 0.5 0
1.25 0.625 0
1.375 0.625 0
1.375 0.5 0
1.5 0.5 0
1.375 0.625 0
1.5 0.625 0
1.25 0.625 0
1.375 0.625 0
1.25 0.75 0
1.375 0.75 0
1.375 0.625 0
1.5 0.625 0
1.375 0.75 0
1.5 0.75 0
1 0.75 0
1.125 0.75 0
1 0.875 0
1.125 0.875 0
1.125 0.75 0
1.25 0.75 0
1.125 0.875 0
1.25 0.875 0
1 0.875 0
1.125 0.875 0
1 1 0
1.125 1 0
1.125 0.875 0
1.25 0.875 0
1.125 1 0
1.25 1 0
1.25 0.75 0
1.375 0.75 0
1.25 0.875 0
1.375 0.875 0
1.375 0.75 0
1.5 0.75 0
1.375 0.875 0
1.5 0.875 0
1.25 0.875 0
1.375 0.875 0
1.25 1 0
1.375 1 0
1.375 0.875 0
1.5 0.875 0
1.375 1 0
1.5 1 0
1.5 0.5 0
1.625 0.5 0
1.5 0.625 0
1.625 0.625 0
1.625 0.5 0
1.75 0.5 0
1.625 0.625 0
1.75 0.625 0
1.5 0.625 0
1.625 0.625 0
1.5 0.75 0
1.625 0.75 0
1.625 0.625 0
1.75 0.625 0
1.625 0.75 0
1.75 0.75 0
1.75 0.5 0
1.875 0.5 0
1.75 0.625 0
1.875 0.625 0
1.875 0.5 0
2 0.5 0
1.875 0.625 0
2 0.625 0
1.75 0.625 0
1.875 0.625 0
1.75 0.75 0
1.875 0.75 0
1.875 0.625 0
2 0.625 0
1.875 0.75 0
2 0.75 0
1.5 0.75 0
1.625 0.75 0
1.5 0.875 0
1.625 0.875 0
1.625 0.75 0
1.75 0.75 0
1.625 0.875 0
1.75 0.875 0
1.5 0.875 0
1.625 0.875 0
1.5 1 0
1.625 1 0
1.625 0.875 0
1.75 0.875 0
1.625 1 0
1.75 1 0
1.75 0.75 0
1.875 0.75 0
1.75 0.875 0
1.875 0.875 0
1.875 0.75 0
2 0.75 0
1.875 0.875 0
2 0.875 0
1.75 0.875 0
1.875 0.875 0
1.75 1 0
1.875 1 0
1.875 0.875 0
2 0.875 0
1.875 1 0
2 1 0

CELLS 128 640
4	0	1	3	2
4	4	5	7	6
4	8	9	11	10
4	12	13	15	14
4	16	17	19	18
4	20	21	23	22
4	24	25	27	26
4	28	29	31	30
4	32	33	35	34
4	36	37	39	38
4	40	41	43	42
4	44	45	47	46
4	48	49	51	50
4	52	53	55	54
4	56	57	59	58
4	60	61	63	62
4	64	65	67	66
4	68	69	71	70
4	72	73	75	74
4	76	77	79	78
4	80	81	83	82
4	84	85	87	86
4	88	89	91	90
4	92	93	95	94
4	96	97	99	98
4	100	101	103	102
4	104	105	107	106
4	108	109	111	110
4	112	113	115	114
4	116	117	119	118
4	120	121	123	122
4	124	125	127	126
4	128	129	131	130
4	132	133	135	134
4	136	137	139	138
4	140	141	143	142
4	144	145	147	146
4	148	149	151	150
4	152	153	155	154
4	156	157	159	158
4	160	161	163	162
4	164	165	167	166
4	168	169	171	170
4	172	173	175	174
4	176	177	179	178
4	180	181	183	182
4	184	185	187	186
4	188	189	191	190
4	192	193	195	194
4	196	197	199	198
4	200	201	203	202
4	204	205	207	206
4	208	209	211	210
4	212	213	215	214
4	216	217	219	218
4	220	221	223	222
4	224	225	227	226
4	228	229	231	230
4	232	233	235	234
4	236	237	239	238
4	240	241	243	242
4	244	245	247	246
4	248	249	251	250
4	252	253	255	254
4	256	257	259	258
4	260	261	263	262
4	264	265	267	266
4	268	269	271	270
4	272	273	275	274
4	276	277	279	278
4	280	281	283	282
4	284	285	287	286
4	288	289	291	290
4	292	293	295	294
4	296	297	299	298
4	300	301	303	302
4	304	305	307	306
4	308	309	311	310
4	312	313	315	314
4	316	317	319	318
4	320	321	323	322
4	324	325	327	326
4	328	329	331	330
4	332	333	335	334
4	336	337	339	338
4	340	341	343	342
4	344	345	347	346
4	348	349	351	350
4	352	353	355	354
4	356	357	359	358
4	360	361	363	362
4	364	365	367	366
4	368	369	371	370
4	372	373	375	374
4	376	377	379	378
4	380	381	383	382
4	384	385	387	386
4	388	389	391	390
4	392	393	395	394
4	396	397	399	398
4	400	401	403	402
4	404	405	407	406
4	408	409	411	410
4	412	413	415	414
4	416	417	419	418
4	420	421	423	422
4	424	425	427	426
4	428	429	431	430
4	432	433	435	434
4	436	437	439	438
4	440	441	443	442
4	444	445	447	446
4	448	449	451	450
4	452	453	455	454
4	456	457	459	458
4	460	461	463	462
4	464	465	467	466
4	468	469	471	470
4	472	473	475	474
4	476	477	479	478
4	480	481	483	482
4	484	485	487	486
4	488	489	491	490
4	492	493	495	494
4	496	497	499	498
4	500	501	503	502
4	504	505	507	506
4	508	509	511	510

CELL_TYPES 128
 9 9 9 9 9 9 9 9 9 9 9 9 9 9 9 9 9 9 9 9 9 9 9 9 9 9 9 9 9 9 9 9 9 9 9 9 9 9 9 9 9 9 9 9 9 9 9 9 9 9 9 9 9 9 9 9 9 9 9 9 9 9 9 9 9 9 9 9 9 9 9 9 9 9 9 9 9 9 9 9 9 9 9 9 9 9 9 9 9 9 9 9 9 9 9 9 9 9 9 9 9 9 9 9 9 9 9 9 9 9 9 9 9 9 9 9 9 9 9 9 9 9 9 9 9 9 9 9
POINT_DATA 512
SCALARS x_displacement double 1
LOOKUP_TABLE default
0 4.14243 0 0.649166 4.14243 7.7567 0.649166 2.0413 0 0.649166 0 -1.83681 0.649166 2.0413 -1.83681 -2.73279 7.7567 10.5803 2.0413 3.75948 10.5803 12.6743 3.75948 5.45154 2.0413 3.75948 -2.73279 -1.91833 3.75948 5.45154 -1.91833 -0.345033 0 -1.83681 0 -4.34761 -1.83681 -2.73279 -4.34761 -7.05315 0 -4.34761 0 1.18419e-11 -4.34761 -7.05315 1.18419e-11 6.72486e-11 -2.73279 -1.91833 -7.05315 -4.52594 -1.91833 -0.345033 -4.52594 -1.12184 -7.05315 -4.52594 6.72486e-11 8.9156e-11 -4.52594 -1.12184 8.9156e-11 9.03938e-11 12.6743 14.7154 5.45154 7.15614 14.7154 17.3704 7.15614 9.21483 5.45154 7.15614 -0.345033 1.19017 7.15614 9.21483 1.19017 2.58918 17.3704 20.1993 9.21483 11.3041 20.1993 22.5174 11.3041 13.0424 9.21483 11.3041 2.58918 3.68975 11.3041 13.0424 3.68975 4.78104 -0.345033 1.19017 -1.12184 0.459363 1.19017 2.58918 0.459363 1.21882 -1.12184 0.459363 9.03938e-11 8.83092e-11 0.459363 1.21882 8.83092e-11 8.94788e-11 2.58918 3.68975 1.21882 1.29247 3.68975 4.78104 1.29247 0.231319 1.21882 1.29247 8.94788e-11 8.73149e-11 1.29247 0.231319 8.73149e-11 8.57917e-11 22.5174 24.4251 13.0424 14.8418 24.4251 26.2943 14.8418 17.2114 13.0424 14.8418 4.78104 6.63104 14.8418 17.2114 6.63104 9.29666 26.2943 28.3344 17.2114 19.8369 28.3344 30.5922 19.8369 22.4128 17.2114 19.8369 9.29666 12.0433 19.8369 22.4128 12.0433 14.7857 4.78104 6.63104 0.231319 -1.11969 6.63104 9.29666 -1.11969 1.7105 0.231319 -1.11969 8.57917e-11 9.02108e-11 -1.11969 1.7105 9.02108e-11 6.71376e-11 9.29666 12.0433 1.7105 4.42269 12.0433 14.7857 4.42269 7.09139 1.7105 4.42269 6.71376e-11 7.02948e-11 4.42269 7.09139 7.02948e-11 6.77591e-11 30.5922 33.3182 22.4128 25.3313 33.3182 36.3768 25.3313 29.6443 22.4128 25.3313 14.7857 18.1279 25.3313 29.6443 18.1279 22.8152 36.3768 34.4423 29.6443 37.6638 34.4423 46.857 37.6638 42.7091 29.6443 37.6638 22.8152 27.9101 37.6638 42.7091 27.9101 30.3812 14.7857 18.1279 7.09139 9.94321 18.1279 22.8152 9.94321 12.6903 7.09139 9.94321 6.77591e-11 6.62555e-11 9.94321 12.6903 6.62555e-11 6.47248e-11 22.8152 27.9101 12.6903 15.1341 27.9101 30.3812 15.1341 15.9734 12.6903 15.1341 6.47248e-11 6.54321e-11 15.1341 15.9734 6.54321e-11 6.48534e-11 0 1.18419e-11 0 4.34761 1.18419e-11 6.72486e-11 4.34761 7.05315 0 4.34761 0 1.83681 4.34761 7.05315 1.83681 2.73279 6.72486e-11 8.9156e-11 7.05315 4.52594 8.9156e-11 9.03938e-11 4.52594 1.12184 7.05315 4.52594 2.73279 1.91833 4.52594 1.12184 1.91833 0.345033 0 1.83681 0 -0.649166 1.83681 2.73279 -0.649166 -2.0413 0 -0.649166 0 -4.14243 -0.649166 -2.0413 -4.14243 -7.7567 2.73279 1.91833 -2.0413 -3.75948 1.91833 0.345033 -3.75948 -5.45154 -2.0413 -3.75948 -7.7567 -10.5803 -3.75948 -5.45154 -10.5803 -12.6743 9.03938e-11 8.83092e-11 1.12184 -0.459363 8.83092e-11 8.94788e-11 -0.459363 -1.21882 1.12184 -0.459363 0.345033 -1.19017 -0.459363 -1.21882 -1.19017 -2.58918 8.94788e-11 8.73149e-11 -1.21882 -1.29247 8.73149e-11 8.57917e-11 -1.29247 -0.231319 -1.21882 -1.29247 -2.58918 -3.68975 -1.29247 -0.231319 -3.68975 -4.78104 0.345033 -1.19017 -5.45154 -7.15614 -1.19017 -2.58918 -7.15614 -9.21483 -5.45154 -7.15614 -12.6743 -14.7154 -7.15614 -9.21483 -14.7154 -17.3704 -2.58918 -3.68975 -9.21483 -11.3041 -3.68975 -4.78104 -11.3041 -13.0424 -9.21483 -11.3041 -17.3704 -20.1993 -11.3041 -13.0424 -20.1993 -22.5174 8.57917e-11 9.02108e-11 -0.231319 1.11969 9.02108e-11 6.71376e-11 1.11969 -1.7105 -0.231319 1.11969 -4.78104 -6.63104 1.11969 -1.7105 -6.63104 -9.29666 6.71376e-11 7.02948e-11 -1.7105 -4.42269 7.02948e-11 6.77591e-11 -4.42269 -7.09139 -1.7105 -4.42269 -9.29666 -12.0433 -4.42269 -7.09139 -12.0433 -14.7857 -4.78104 -6.63104 -13.0424 -14.8418 -6.63104 -9.29666 -14.8418 -17.2114 -13.0424 -14.8418 -22.5174 -24.4251 -14.8418 -17.2114 -24.4251 -26.2943 -9.29666 -12.0433 -17.2114 -19.8369 -12.0433 -14.7857 -19.8369 -22.4128 -17.2114 -19.8369 -26.2943 -28.3344 -19.8369 -22.4128 -28.3344 -30.5922 6.77591e-11 6.62555e-11 -7.09139 -9.94321 6.62555e-11 6.47248e-11 -9.94321 -12.6903 -7.09139 -9.94321 -14.7857 -18.1279 -9.94321 -12.6903 -18.1279 -22.8152 6.47248e-11 6.54321e-11 -12.6903 -15.1341 6.54321e-11 6.48534e-11 -15.1341 -15.9734 -12.6903 -15.1341 -22.8152 -27.9101 -15.1341 -15.9734 -27.9101 -30.3812 -14.7857 -18.1279 -22.4128 -25.3313 -18.1279 -22.8152 -25.3313 -29.6443 -22.4128 -25.3313 -30.5922 -33.3182 -25.3313 -29.6443 -33.3182 -36.3768 -22.8152 -27.9101 -29.6443 -37.6638 -27.9101 -30.3812 -37.6638 -42.7091 -29.6443 -37.6638 -36.3768 -34.4423 -37.6638 -42.7091 -34.4423 -46.857 
SCALARS y_displacement double 1
LOOKUP_TABLE default
0 3.22392 0 2.31494 3.22392 8.75764 2.31494 8.03803 0 2.31494 0 2.41946 2.31494 8.03803 2.41946 7.77028 8.75764 15.9188 8.03803 15.3689 15.9188 23.4412 15.3689 22.9992 8.03803 15.3689 7.77028 15.3035 15.3689 22.9992 15.3035 23.1752 0 2.41946 0 3.27447 2.41946 7.77028 3.27447 7.80028 0 3.27447 0 4.60775 3.27447 7.80028 4.60775 7.82686 7.77028 15.3035 7.80028 16.4031 15.3035 23.1752 16.4031 25.3208 7.80028 16.4031 7.82686 21.6897 16.4031 25.3208 21.6897 26.7907 23.4412 30.9769 22.9992 30.3859 30.9769 38.807 30.3859 37.9768 22.9992 30.3859 23.1752 30.2749 30.3859 37.9768 30.2749 37.0647 38.807 47.4775 37.9768 46.6659 47.4775 57.2387 46.6659 56.5823 37.9768 46.6659 37.0647 45.3252 46.6659 56.5823 45.3252 55.5364 23.1752 30.2749 25.3208 31.1383 30.2749 37.0647 31.1383 36.2824 25.3208 31.1383 26.7907 31.4192 31.1383 36.2824 31.4192 36.1288 37.0647 45.3252 36.2824 42.4734 45.3252 55.5364 42.4734 52.298 36.2824 42.4734 36.1288 41.7337 42.4734 52.298 41.7337 48.9017 57.2387 67.9032 56.5823 67.3741 67.9032 79.1371 67.3741 78.7463 56.5823 67.3741 55.5364 66.7858 67.3741 78.7463 66.7858 78.4689 79.1371 90.3599 78.7463 89.9788 90.3599 101.336 89.9788 100.929 78.7463 89.9788 78.4689 89.6242 89.9788 100.929 89.6242 100.521 55.5364 66.7858 52.298 66.1611 66.7858 78.4689 66.1611 78.3508 52.298 66.1611 48.9017 62.8821 66.1611 78.3508 62.8821 79.5447 78.4689 89.6242 78.3508 89.3198 89.6242 100.521 89.3198 100.059 78.3508 89.3198 79.5447 89.5367 89.3198 100.059 89.5367 99.9598 101.336 112.808 100.929 112.455 112.808 126.012 112.455 125.974 100.929 112.455 100.521 112.139 112.455 125.974 112.139 125.966 126.012 139.276 125.974 143.085 139.276 157.699 143.085 158.703 125.974 143.085 125.966 142.792 143.085 158.703 142.792 159.503 100.521 112.139 100.059 111.773 112.139 125.966 111.773 125.694 100.059 111.773 99.9598 111.641 111.773 125.694 111.641 125.626 125.966 142.792 125.694 142.697 142.792 159.503 142.697 160.563 125.694 142.697 125.626 142.241 142.697 160.563 142.241 163.138 0 4.60775 0 3.27447 4.60775 7.82686 3.27447 7.80028 0 3.27447 0 2.41946 3.27447 7.80028 2.41946 7.77028 7.82686 21.6897 7.80028 16.4031 21.6897 26.7907 16.4031 25.3208 7.80028 16.4031 7.77028 15.3035 16.4031 25.3208 15.3035 23.1752 0 2.41946 0 2.31494 2.41946 7.77028 2.31494 8.03803 0 2.31494 0 3.22392 2.31494 8.03803 3.22392 8.75764 7.77028 15.3035 8.03803 15.3689 15.3035 23.1752 15.3689 22.9992 8.03803 15.3689 8.75764 15.9188 15.3689 22.9992 15.9188 23.4412 26.7907 31.4192 25.3208 31.1383 31.4192 36.1288 31.1383 36.2824 25.3208 31.1383 23.1752 30.2749 31.1383 36.2824 30.2749 37.0647 36.1288 41.7337 36.2824 42.4734 41.7337 48.9017 42.4734 52.298 36.2824 42.4734 37.0647 45.3252 42.4734 52.298 45.3252 55.5364 23.1752 30.2749 22.9992 30.3859 30.2749 37.0647 30.3859 37.9768 22.9992 30.3859 23.4412 30.9769 30.3859 37.9768 30.9769 38.807 37.0647 45.3252 37.9768 46.6659 45.3252 55.5364 46.6659 56.5823 37.9768 46.6659 38.807 47.4775 46.6659 56.5823 47.4775 57.2387 48.9017 62.8821 52.298 66.1611 62.8821 79.5447 66.1611 78.3508 52.298 66.1611 55.5364 66.7858 66.1611 78.3508 66.7858 78.4689 79.5447 89.5367 78.3508 89.3198 89.5367 99.9598 89.3198 100.059 78.3508 89.3198 78.4689 89.6242 89.3198 100.059 89.6242 100.521 55.5364 66.7858 56.5823 67.3741 66.7858 78.4689 67.3741 78.7463 56.5823 67.3741 57.2387 67.9032 67.3741 78.7463 67.9032 79.1371 78.4689 89.6242 78.7463 89.9788 89.6242 100.521 89.9788 100.929 78.7463 89.9788 79.1371 90.3599 89.9788 100.929 90.3599 101.336 99.9598 111.641 100.059 111.773 111.641 125.626 111.773 125.694 100.059 111.773 100.521 112.139 111.773 125.694 112.139 125.966 125.626 142.241 125.694 142.697 142.241 163.138 142.697 160.563 125.694 142.697 125.966 142.792 142.697 160.563 142.792 159.503 100.521 112.139 100.929 112.455 112.139 125.966 112.455 125.974 100.929 112.455 101.336 112.808 112.455 125.974 112.808 126.012 125.966 142.792 125.974 143.085 142.792 159.503 143.085 158.703 125.974 143.085 126.012 139.276 143.085 158.703 139.276 157.699 
