# vtk DataFile Version 3.0
#This file was generated by the deal.II library on 2016/2/8 at 16:07:52
ASCII
DATASET UNSTRUCTURED_GRID

POINTS 3200 double
0 0 0
0.05 0 0
0 0.05 0
0.05 0.05 0
0.05 0 0
0.1 0 0
0.05 0.05 0
0.1 0.05 0
0.1 0 0
0.15 0 0
0.1 0.05 0
0.15 0.05 0
0.15 0 0
0.2 0 0
0.15 0.05 0
0.2 0.05 0
0.2 0 0
0.25 0 0
0.2 0.05 0
0.25 0.05 0
0.25 0 0
0.3 0 0
0.25 0.05 0
0.3 0.05 0
0.3 0 0
0.35 0 0
0.3 0.05 0
0.35 0.05 0
0.35 0 0
0.4 0 0
0.35 0.05 0
0.4 0.05 0
0.4 0 0
0.45 0 0
0.4 0.05 0
0.45 0.05 0
0.45 0 0
0.5 0 0
0.45 0.05 0
0.5 0.05 0
0.5 0 0
0.55 0 0
0.5 0.05 0
0.55 0.05 0
0.55 0 0
0.6 0 0
0.55 0.05 0
0.6 0.05 0
0.6 0 0
0.65 0 0
0.6 0.05 0
0.65 0.05 0
0.65 0 0
0.7 0 0
0.65 0.05 0
0.7 0.05 0
0.7 0 0
0.75 0 0
0.7 0.05 0
0.75 0.05 0
0.75 0 0
0.8 0 0
0.75 0.05 0
0.8 0.05 0
0.8 0 0
0.85 0 0
0.8 0.05 0
0.85 0.05 0
0.85 0 0
0.9 0 0
0.85 0.05 0
0.9 0.05 0
0.9 0 0
0.95 0 0
0.9 0.05 0
0.95 0.05 0
0.95 0 0
1 0 0
0.95 0.05 0
1 0.05 0
1 0 0
1.05 0 0
1 0.05 0
1.05 0.05 0
1.05 0 0
1.1 0 0
1.05 0.05 0
1.1 0.05 0
1.1 0 0
1.15 0 0
1.1 0.05 0
1.15 0.05 0
1.15 0 0
1.2 0 0
1.15 0.05 0
1.2 0.05 0
1.2 0 0
1.25 0 0
1.2 0.05 0
1.25 0.05 0
1.25 0 0
1.3 0 0
1.25 0.05 0
1.3 0.05 0
1.3 0 0
1.35 0 0
1.3 0.05 0
1.35 0.05 0
1.35 0 0
1.4 0 0
1.35 0.05 0
1.4 0.05 0
1.4 0 0
1.45 0 0
1.4 0.05 0
1.45 0.05 0
1.45 0 0
1.5 0 0
1.45 0.05 0
1.5 0.05 0
1.5 0 0
1.55 0 0
1.5 0.05 0
1.55 0.05 0
1.55 0 0
1.6 0 0
1.55 0.05 0
1.6 0.05 0
1.6 0 0
1.65 0 0
1.6 0.05 0
1.65 0.05 0
1.65 0 0
1.7 0 0
1.65 0.05 0
1.7 0.05 0
1.7 0 0
1.75 0 0
1.7 0.05 0
1.75 0.05 0
1.75 0 0
1.8 0 0
1.75 0.05 0
1.8 0.05 0
1.8 0 0
1.85 0 0
1.8 0.05 0
1.85 0.05 0
1.85 0 0
1.9 0 0
1.85 0.05 0
1.9 0.05 0
1.9 0 0
1.95 0 0
1.9 0.05 0
1.95 0.05 0
1.95 0 0
2 0 0
1.95 0.05 0
2 0.05 0
0 0.05 0
0.05 0.05 0
0 0.1 0
0.05 0.1 0
0.05 0.05 0
0.1 0.05 0
0.05 0.1 0
0.1 0.1 0
0.1 0.05 0
0.15 0.05 0
0.1 0.1 0
0.15 0.1 0
0.15 0.05 0
0.2 0.05 0
0.15 0.1 0
0.2 0.1 0
0.2 0.05 0
0.25 0.05 0
0.2 0.1 0
0.25 0.1 0
0.25 0.05 0
0.3 0.05 0
0.25 0.1 0
0.3 0.1 0
0.3 0.05 0
0.35 0.05 0
0.3 0.1 0
0.35 0.1 0
0.35 0.05 0
0.4 0.05 0
0.35 0.1 0
0.4 0.1 0
0.4 0.05 0
0.45 0.05 0
0.4 0.1 0
0.45 0.1 0
0.45 0.05 0
0.5 0.05 0
0.45 0.1 0
0.5 0.1 0
0.5 0.05 0
0.55 0.05 0
0.5 0.1 0
0.55 0.1 0
0.55 0.05 0
0.6 0.05 0
0.55 0.1 0
0.6 0.1 0
0.6 0.05 0
0.65 0.05 0
0.6 0.1 0
0.65 0.1 0
0.65 0.05 0
0.7 0.05 0
0.65 0.1 0
0.7 0.1 0
0.7 0.05 0
0.75 0.05 0
0.7 0.1 0
0.75 0.1 0
0.75 0.05 0
0.8 0.05 0
0.75 0.1 0
0.8 0.1 0
0.8 0.05 0
0.85 0.05 0
0.8 0.1 0
0.85 0.1 0
0.85 0.05 0
0.9 0.05 0
0.85 0.1 0
0.9 0.1 0
0.9 0.05 0
0.95 0.05 0
0.9 0.1 0
0.95 0.1 0
0.95 0.05 0
1 0.05 0
0.95 0.1 0
1 0.1 0
1 0.05 0
1.05 0.05 0
1 0.1 0
1.05 0.1 0
1.05 0.05 0
1.1 0.05 0
1.05 0.1 0
1.1 0.1 0
1.1 0.05 0
1.15 0.05 0
1.1 0.1 0
1.15 0.1 0
1.15 0.05 0
1.2 0.05 0
1.15 0.1 0
1.2 0.1 0
1.2 0.05 0
1.25 0.05 0
1.2 0.1 0
1.25 0.1 0
1.25 0.05 0
1.3 0.05 0
1.25 0.1 0
1.3 0.1 0
1.3 0.05 0
1.35 0.05 0
1.3 0.1 0
1.35 0.1 0
1.35 0.05 0
1.4 0.05 0
1.35 0.1 0
1.4 0.1 0
1.4 0.05 0
1.45 0.05 0
1.4 0.1 0
1.45 0.1 0
1.45 0.05 0
1.5 0.05 0
1.45 0.1 0
1.5 0.1 0
1.5 0.05 0
1.55 0.05 0
1.5 0.1 0
1.55 0.1 0
1.55 0.05 0
1.6 0.05 0
1.55 0.1 0
1.6 0.1 0
1.6 0.05 0
1.65 0.05 0
1.6 0.1 0
1.65 0.1 0
1.65 0.05 0
1.7 0.05 0
1.65 0.1 0
1.7 0.1 0
1.7 0.05 0
1.75 0.05 0
1.7 0.1 0
1.75 0.1 0
1.75 0.05 0
1.8 0.05 0
1.75 0.1 0
1.8 0.1 0
1.8 0.05 0
1.85 0.05 0
1.8 0.1 0
1.85 0.1 0
1.85 0.05 0
1.9 0.05 0
1.85 0.1 0
1.9 0.1 0
1.9 0.05 0
1.95 0.05 0
1.9 0.1 0
1.95 0.1 0
1.95 0.05 0
2 0.05 0
1.95 0.1 0
2 0.1 0
0 0.1 0
0.05 0.1 0
0 0.15 0
0.05 0.15 0
0.05 0.1 0
0.1 0.1 0
0.05 0.15 0
0.1 0.15 0
0.1 0.1 0
0.15 0.1 0
0.1 0.15 0
0.15 0.15 0
0.15 0.1 0
0.2 0.1 0
0.15 0.15 0
0.2 0.15 0
0.2 0.1 0
0.25 0.1 0
0.2 0.15 0
0.25 0.15 0
0.25 0.1 0
0.3 0.1 0
0.25 0.15 0
0.3 0.15 0
0.3 0.1 0
0.35 0.1 0
0.3 0.15 0
0.35 0.15 0
0.35 0.1 0
0.4 0.1 0
0.35 0.15 0
0.4 0.15 0
0.4 0.1 0
0.45 0.1 0
0.4 0.15 0
0.45 0.15 0
0.45 0.1 0
0.5 0.1 0
0.45 0.15 0
0.5 0.15 0
0.5 0.1 0
0.55 0.1 0
0.5 0.15 0
0.55 0.15 0
0.55 0.1 0
0.6 0.1 0
0.55 0.15 0
0.6 0.15 0
0.6 0.1 0
0.65 0.1 0
0.6 0.15 0
0.65 0.15 0
0.65 0.1 0
0.7 0.1 0
0.65 0.15 0
0.7 0.15 0
0.7 0.1 0
0.75 0.1 0
0.7 0.15 0
0.75 0.15 0
0.75 0.1 0
0.8 0.1 0
0.75 0.15 0
0.8 0.15 0
0.8 0.1 0
0.85 0.1 0
0.8 0.15 0
0.85 0.15 0
0.85 0.1 0
0.9 0.1 0
0.85 0.15 0
0.9 0.15 0
0.9 0.1 0
0.95 0.1 0
0.9 0.15 0
0.95 0.15 0
0.95 0.1 0
1 0.1 0
0.95 0.15 0
1 0.15 0
1 0.1 0
1.05 0.1 0
1 0.15 0
1.05 0.15 0
1.05 0.1 0
1.1 0.1 0
1.05 0.15 0
1.1 0.15 0
1.1 0.1 0
1.15 0.1 0
1.1 0.15 0
1.15 0.15 0
1.15 0.1 0
1.2 0.1 0
1.15 0.15 0
1.2 0.15 0
1.2 0.1 0
1.25 0.1 0
1.2 0.15 0
1.25 0.15 0
1.25 0.1 0
1.3 0.1 0
1.25 0.15 0
1.3 0.15 0
1.3 0.1 0
1.35 0.1 0
1.3 0.15 0
1.35 0.15 0
1.35 0.1 0
1.4 0.1 0
1.35 0.15 0
1.4 0.15 0
1.4 0.1 0
1.45 0.1 0
1.4 0.15 0
1.45 0.15 0
1.45 0.1 0
1.5 0.1 0
1.45 0.15 0
1.5 0.15 0
1.5 0.1 0
1.55 0.1 0
1.5 0.15 0
1.55 0.15 0
1.55 0.1 0
1.6 0.1 0
1.55 0.15 0
1.6 0.15 0
1.6 0.1 0
1.65 0.1 0
1.6 0.15 0
1.65 0.15 0
1.65 0.1 0
1.7 0.1 0
1.65 0.15 0
1.7 0.15 0
1.7 0.1 0
1.75 0.1 0
1.7 0.15 0
1.75 0.15 0
1.75 0.1 0
1.8 0.1 0
1.75 0.15 0
1.8 0.15 0
1.8 0.1 0
1.85 0.1 0
1.8 0.15 0
1.85 0.15 0
1.85 0.1 0
1.9 0.1 0
1.85 0.15 0
1.9 0.15 0
1.9 0.1 0
1.95 0.1 0
1.9 0.15 0
1.95 0.15 0
1.95 0.1 0
2 0.1 0
1.95 0.15 0
2 0.15 0
0 0.15 0
0.05 0.15 0
0 0.2 0
0.05 0.2 0
0.05 0.15 0
0.1 0.15 0
0.05 0.2 0
0.1 0.2 0
0.1 0.15 0
0.15 0.15 0
0.1 0.2 0
0.15 0.2 0
0.15 0.15 0
0.2 0.15 0
0.15 0.2 0
0.2 0.2 0
0.2 0.15 0
0.25 0.15 0
0.2 0.2 0
0.25 0.2 0
0.25 0.15 0
0.3 0.15 0
0.25 0.2 0
0.3 0.2 0
0.3 0.15 0
0.35 0.15 0
0.3 0.2 0
0.35 0.2 0
0.35 0.15 0
0.4 0.15 0
0.35 0.2 0
0.4 0.2 0
0.4 0.15 0
0.45 0.15 0
0.4 0.2 0
0.45 0.2 0
0.45 0.15 0
0.5 0.15 0
0.45 0.2 0
0.5 0.2 0
0.5 0.15 0
0.55 0.15 0
0.5 0.2 0
0.55 0.2 0
0.55 0.15 0
0.6 0.15 0
0.55 0.2 0
0.6 0.2 0
0.6 0.15 0
0.65 0.15 0
0.6 0.2 0
0.65 0.2 0
0.65 0.15 0
0.7 0.15 0
0.65 0.2 0
0.7 0.2 0
0.7 0.15 0
0.75 0.15 0
0.7 0.2 0
0.75 0.2 0
0.75 0.15 0
0.8 0.15 0
0.75 0.2 0
0.8 0.2 0
0.8 0.15 0
0.85 0.15 0
0.8 0.2 0
0.85 0.2 0
0.85 0.15 0
0.9 0.15 0
0.85 0.2 0
0.9 0.2 0
0.9 0.15 0
0.95 0.15 0
0.9 0.2 0
0.95 0.2 0
0.95 0.15 0
1 0.15 0
0.95 0.2 0
1 0.2 0
1 0.15 0
1.05 0.15 0
1 0.2 0
1.05 0.2 0
1.05 0.15 0
1.1 0.15 0
1.05 0.2 0
1.1 0.2 0
1.1 0.15 0
1.15 0.15 0
1.1 0.2 0
1.15 0.2 0
1.15 0.15 0
1.2 0.15 0
1.15 0.2 0
1.2 0.2 0
1.2 0.15 0
1.25 0.15 0
1.2 0.2 0
1.25 0.2 0
1.25 0.15 0
1.3 0.15 0
1.25 0.2 0
1.3 0.2 0
1.3 0.15 0
1.35 0.15 0
1.3 0.2 0
1.35 0.2 0
1.35 0.15 0
1.4 0.15 0
1.35 0.2 0
1.4 0.2 0
1.4 0.15 0
1.45 0.15 0
1.4 0.2 0
1.45 0.2 0
1.45 0.15 0
1.5 0.15 0
1.45 0.2 0
1.5 0.2 0
1.5 0.15 0
1.55 0.15 0
1.5 0.2 0
1.55 0.2 0
1.55 0.15 0
1.6 0.15 0
1.55 0.2 0
1.6 0.2 0
1.6 0.15 0
1.65 0.15 0
1.6 0.2 0
1.65 0.2 0
1.65 0.15 0
1.7 0.15 0
1.65 0.2 0
1.7 0.2 0
1.7 0.15 0
1.75 0.15 0
1.7 0.2 0
1.75 0.2 0
1.75 0.15 0
1.8 0.15 0
1.75 0.2 0
1.8 0.2 0
1.8 0.15 0
1.85 0.15 0
1.8 0.2 0
1.85 0.2 0
1.85 0.15 0
1.9 0.15 0
1.85 0.2 0
1.9 0.2 0
1.9 0.15 0
1.95 0.15 0
1.9 0.2 0
1.95 0.2 0
1.95 0.15 0
2 0.15 0
1.95 0.2 0
2 0.2 0
0 0.2 0
0.05 0.2 0
0 0.25 0
0.05 0.25 0
0.05 0.2 0
0.1 0.2 0
0.05 0.25 0
0.1 0.25 0
0.1 0.2 0
0.15 0.2 0
0.1 0.25 0
0.15 0.25 0
0.15 0.2 0
0.2 0.2 0
0.15 0.25 0
0.2 0.25 0
0.2 0.2 0
0.25 0.2 0
0.2 0.25 0
0.25 0.25 0
0.25 0.2 0
0.3 0.2 0
0.25 0.25 0
0.3 0.25 0
0.3 0.2 0
0.35 0.2 0
0.3 0.25 0
0.35 0.25 0
0.35 0.2 0
0.4 0.2 0
0.35 0.25 0
0.4 0.25 0
0.4 0.2 0
0.45 0.2 0
0.4 0.25 0
0.45 0.25 0
0.45 0.2 0
0.5 0.2 0
0.45 0.25 0
0.5 0.25 0
0.5 0.2 0
0.55 0.2 0
0.5 0.25 0
0.55 0.25 0
0.55 0.2 0
0.6 0.2 0
0.55 0.25 0
0.6 0.25 0
0.6 0.2 0
0.65 0.2 0
0.6 0.25 0
0.65 0.25 0
0.65 0.2 0
0.7 0.2 0
0.65 0.25 0
0.7 0.25 0
0.7 0.2 0
0.75 0.2 0
0.7 0.25 0
0.75 0.25 0
0.75 0.2 0
0.8 0.2 0
0.75 0.25 0
0.8 0.25 0
0.8 0.2 0
0.85 0.2 0
0.8 0.25 0
0.85 0.25 0
0.85 0.2 0
0.9 0.2 0
0.85 0.25 0
0.9 0.25 0
0.9 0.2 0
0.95 0.2 0
0.9 0.25 0
0.95 0.25 0
0.95 0.2 0
1 0.2 0
0.95 0.25 0
1 0.25 0
1 0.2 0
1.05 0.2 0
1 0.25 0
1.05 0.25 0
1.05 0.2 0
1.1 0.2 0
1.05 0.25 0
1.1 0.25 0
1.1 0.2 0
1.15 0.2 0
1.1 0.25 0
1.15 0.25 0
1.15 0.2 0
1.2 0.2 0
1.15 0.25 0
1.2 0.25 0
1.2 0.2 0
1.25 0.2 0
1.2 0.25 0
1.25 0.25 0
1.25 0.2 0
1.3 0.2 0
1.25 0.25 0
1.3 0.25 0
1.3 0.2 0
1.35 0.2 0
1.3 0.25 0
1.35 0.25 0
1.35 0.2 0
1.4 0.2 0
1.35 0.25 0
1.4 0.25 0
1.4 0.2 0
1.45 0.2 0
1.4 0.25 0
1.45 0.25 0
1.45 0.2 0
1.5 0.2 0
1.45 0.25 0
1.5 0.25 0
1.5 0.2 0
1.55 0.2 0
1.5 0.25 0
1.55 0.25 0
1.55 0.2 0
1.6 0.2 0
1.55 0.25 0
1.6 0.25 0
1.6 0.2 0
1.65 0.2 0
1.6 0.25 0
1.65 0.25 0
1.65 0.2 0
1.7 0.2 0
1.65 0.25 0
1.7 0.25 0
1.7 0.2 0
1.75 0.2 0
1.7 0.25 0
1.75 0.25 0
1.75 0.2 0
1.8 0.2 0
1.75 0.25 0
1.8 0.25 0
1.8 0.2 0
1.85 0.2 0
1.8 0.25 0
1.85 0.25 0
1.85 0.2 0
1.9 0.2 0
1.85 0.25 0
1.9 0.25 0
1.9 0.2 0
1.95 0.2 0
1.9 0.25 0
1.95 0.25 0
1.95 0.2 0
2 0.2 0
1.95 0.25 0
2 0.25 0
0 0.25 0
0.05 0.25 0
0 0.3 0
0.05 0.3 0
0.05 0.25 0
0.1 0.25 0
0.05 0.3 0
0.1 0.3 0
0.1 0.25 0
0.15 0.25 0
0.1 0.3 0
0.15 0.3 0
0.15 0.25 0
0.2 0.25 0
0.15 0.3 0
0.2 0.3 0
0.2 0.25 0
0.25 0.25 0
0.2 0.3 0
0.25 0.3 0
0.25 0.25 0
0.3 0.25 0
0.25 0.3 0
0.3 0.3 0
0.3 0.25 0
0.35 0.25 0
0.3 0.3 0
0.35 0.3 0
0.35 0.25 0
0.4 0.25 0
0.35 0.3 0
0.4 0.3 0
0.4 0.25 0
0.45 0.25 0
0.4 0.3 0
0.45 0.3 0
0.45 0.25 0
0.5 0.25 0
0.45 0.3 0
0.5 0.3 0
0.5 0.25 0
0.55 0.25 0
0.5 0.3 0
0.55 0.3 0
0.55 0.25 0
0.6 0.25 0
0.55 0.3 0
0.6 0.3 0
0.6 0.25 0
0.65 0.25 0
0.6 0.3 0
0.65 0.3 0
0.65 0.25 0
0.7 0.25 0
0.65 0.3 0
0.7 0.3 0
0.7 0.25 0
0.75 0.25 0
0.7 0.3 0
0.75 0.3 0
0.75 0.25 0
0.8 0.25 0
0.75 0.3 0
0.8 0.3 0
0.8 0.25 0
0.85 0.25 0
0.8 0.3 0
0.85 0.3 0
0.85 0.25 0
0.9 0.25 0
0.85 0.3 0
0.9 0.3 0
0.9 0.25 0
0.95 0.25 0
0.9 0.3 0
0.95 0.3 0
0.95 0.25 0
1 0.25 0
0.95 0.3 0
1 0.3 0
1 0.25 0
1.05 0.25 0
1 0.3 0
1.05 0.3 0
1.05 0.25 0
1.1 0.25 0
1.05 0.3 0
1.1 0.3 0
1.1 0.25 0
1.15 0.25 0
1.1 0.3 0
1.15 0.3 0
1.15 0.25 0
1.2 0.25 0
1.15 0.3 0
1.2 0.3 0
1.2 0.25 0
1.25 0.25 0
1.2 0.3 0
1.25 0.3 0
1.25 0.25 0
1.3 0.25 0
1.25 0.3 0
1.3 0.3 0
1.3 0.25 0
1.35 0.25 0
1.3 0.3 0
1.35 0.3 0
1.35 0.25 0
1.4 0.25 0
1.35 0.3 0
1.4 0.3 0
1.4 0.25 0
1.45 0.25 0
1.4 0.3 0
1.45 0.3 0
1.45 0.25 0
1.5 0.25 0
[...]
POINT_DATA 3200
SCALARS x_displacement double 1
LOOKUP_TABLE default
0 1.67119 0 0.966682 1.67119 2.87359 0.966682 1.99842 2.87359 3.83512 1.99842 2.86152 3.83512 4.62723 2.86152 3.59397 4.62723 5.33113 3.59397 4.2468 5.33113 6.03511 4.2468 4.854 6.03511 6.78965 4.854 5.45246 6.78965 7.59313 5.45246 6.0788 7.59313 8.40983 6.0788 6.74399 8.40983 9.21175 6.74399 7.43235 9.21175 9.99214 7.43235 8.13883 9.99214 10.7552 8.13883 8.85104 10.7552 11.4987 8.85104 9.56491 11.4987 12.2199 9.56491 10.2827 12.2199 12.9193 10.2827 11.0031 12.9193 13.6041 11.0031 11.7197 13.6041 14.2925 11.7197 12.4224 14.2925 15.0054 12.4224 13.1041 15.0054 15.7492 13.1041 13.7621 15.7492 16.5105 13.7621 14.3951 16.5105 17.2688 14.3951 15.0018 17.2688 18.0056 15.0018 15.5782 18.0056 18.697 15.5782 16.1186 18.697 19.3044 16.1186 16.6132 19.3044 19.7752 16.6132 17.0511 19.7752 20.0846 17.0511 17.4616 20.0846 20.249 17.4616 17.9766 20.249 21.1123 17.9766 18.6404 21.1123 21.8818 18.6404 18.8915 21.8818 21.4395 18.8915 19.2569 21.4395 22.6236 19.2569 20.0807 22.6236 23.3216 20.0807 19.9781 23.3216 23.5751 19.9781 20.1374 23.5751 23.51 20.1374 20.2316 23.51 23.299 20.2316 20.1621 23.299 23.0773 20.1621 20.2104 23.0773 22.9499 20.2104 20.1921 22.9499 22.8631 20.1921 20.1417 22.8631 22.8182 20.1417 20.109 22.8182 22.8095 20.109 20.1028 0 0.966682 0 0.854784 0.966682 1.99842 0.854784 1.5006 1.99842 2.86152 1.5006 2.12641 2.86152 3.59397 2.12641 2.74917 3.59397 4.2468 2.74917 3.29714 4.2468 4.854 3.29714 3.73713 4.854 5.45246 3.73713 4.1 5.45246 6.0788 4.1 4.48334 6.0788 6.74399 4.48334 4.97355 6.74399 7.43235 4.97355 5.63346 7.43235 8.13883 5.63346 6.29298 8.13883 8.85104 6.29298 6.94766 8.85104 9.56491 6.94766 7.6319 9.56491 10.2827 7.6319 8.34542 10.2827 11.0031 8.34542 9.09177 11.0031 11.7197 9.09177 9.86498 11.7197 12.4224 9.86498 10.6182 12.4224 13.1041 10.6182 11.2776 13.1041 13.7621 11.2776 11.8407 13.7621 14.3951 11.8407 12.349 14.3951 15.0018 12.349 12.83 15.0018 15.5782 12.83 13.2798 15.5782 16.1186 13.2798 13.6933 16.1186 16.6132 13.6933 14.0972 16.6132 17.0511 14.0972 14.5072 17.0511 17.4616 14.5072 14.8842 17.4616 17.9766 14.8842 15.277 17.9766 18.6404 15.277 15.6572 18.6404 18.8915 15.6572 16.0601 18.8915 19.2569 16.0601 16.6361 19.2569 20.0807 16.6361 16.9051 20.0807 19.9781 16.9051 17.059 19.9781 20.1374 17.059 16.9701 20.1374 20.2316 16.9701 16.7642 20.2316 20.1621 16.7642 17.2821 20.1621 20.2104 17.2821 17.4543 20.2104 20.1921 17.4543 17.4356 20.1921 20.1417 17.4356 17.3947 20.1417 20.109 17.3947 17.3649 20.109 20.1028 17.3649 17.384 0 0.854784 0 0.608755 0.854784 1.5006 0.608755 0.841248 1.5006 2.12641 0.841248 1.54251 2.12641 2.74917 1.54251 2.17668 2.74917 3.29714 2.17668 2.5888 3.29714 3.73713 2.5888 2.90792 3.73713 4.1 2.90792 3.14591 4.1 4.48334 3.14591 3.45092 4.48334 4.97355 3.45092 3.87386 4.97355 5.63346 3.87386 4.25145 5.63346 6.29298 4.25145 4.52214 6.29298 6.94766 4.52214 5.07403 6.94766 7.6319 5.07403 5.70282 7.6319 8.34542 5.70282 6.41468 8.34542 9.09177 6.41468 7.18073 9.09177 9.86498 7.18073 8.26251 9.86498 10.6182 8.26251 9.54595 10.6182 11.2776 9.54595 10.1544 11.2776 11.8407 10.1544 10.5656 11.8407 12.349 10.5656 10.9459 12.349 12.83 10.9459 11.2711 12.83 13.2798 11.2711 11.493 13.2798 13.6933 11.493 11.6415 13.6933 14.0972 11.6415 11.7551 14.0972 14.5072 11.7551 11.8834 14.5072 14.8842 11.8834 12.0817 14.8842 15.277 12.0817 12.4287 15.277 15.6572 12.4287 12.8448 15.6572 16.0601 12.8448 13.204 16.0601 16.6361 13.204 13.5364 16.6361 16.9051 13.5364 13.9041 16.9051 17.059 13.9041 14.1857 17.059 16.9701 14.1857 14.5144 16.9701 16.7642 14.5144 14.9965 16.7642 17.2821 14.9965 15.088 17.2821 17.4543 15.088 14.793 17.4543 17.4356 14.793 14.7362 17.4356 17.3947 14.7362 14.6097 17.3947 17.3649 14.6097 14.6779 17.3649 17.384 14.6779 14.7338 0 0.608755 0 -0.0396245 0.608755 0.841248 -0.0396245 0.351708 0.841248 1.54251 0.351708 1.32567 1.54251 2.17668 1.32567 1.72956 2.17668 2.5888 1.72956 2.09513 2.5888 2.90792 2.09513 2.38485 2.90792 3.14591 2.38485 2.71646 3.14591 3.45092 2.71646 3.1615 3.45092 3.87386 3.1615 3.58772 3.87386 4.25145 3.58772 4.06217 4.25145 4.52214 4.06217 4.87299 4.52214 5.07403 4.87299 5.36883 5.07403 5.70282 5.36883 5.74756 5.70282 6.41468 5.74756 6.80276 6.41468 7.18073 6.80276 9.01018 7.18073 8.26251 9.01018 9.17848 8.26251 9.54595 9.17848 9.22591 9.54595 10.1544 9.22591 9.37806 10.1544 10.5656 9.37806 9.55662 10.5656 10.9459 9.55662 9.73437 10.9459 11.2711 9.73437 9.84392 11.2711 11.493 9.84392 9.87085 11.493 11.6415 9.87085 9.83649 11.6415 11.7551 9.83649 9.79568 11.7551 11.8834 9.79568 9.77395 11.8834 12.0817 9.77395 9.77495 12.0817 12.4287 9.77495 9.78835 12.4287 12.8448 9.78835 9.89336 12.8448 13.204 9.89336 10.1799 13.204 13.5364 10.1799 10.582 13.5364 13.9041 10.582 10.9294 13.9041 14.1857 10.9294 11.2872 14.1857 14.5144 11.2872 11.7832 14.5144 14.9965 11.7832 11.9517 14.9965 15.088 11.9517 11.9759 15.088 14.793 11.9759 12.1966 14.793 14.7362 12.1966 11.5707 14.7362 14.6097 11.5707 12.0171 14.6097 14.6779 12.0171 12.1795 14.6779 14.7338 12.1795 12.2124 0 -0.0396245 0 0.988366 -0.0396245 0.351708 0.988366 2.73037 0.351708 1.32567 2.73037 1.20489 1.32567 1.72956 1.20489 1.39488 1.72956 2.09513 1.39488 1.6277 2.09513 2.38485 1.6277 1.90952 2.38485 2.71646 1.90952 2.24637 2.71646 3.1615 2.24637 2.59583 3.1615 3.58772 2.59583 3.02351 3.58772 4.06217 3.02351 3.49994 4.06217 4.87299 3.49994 3.97864 4.87299 5.36883 3.97864 4.38458 5.36883 5.74756 4.38458 4.91267 5.74756 6.80276 4.91267 5.60629 6.80276 9.01018 5.60629 6.67635 9.01018 9.17848 6.67635 7.34171 9.17848 9.22591 7.34171 7.80364 9.22591 9.37806 7.80364 8.01705 9.37806 9.55662 8.01705 8.17927 9.55662 9.73437 8.17927 8.25725 9.73437 9.84392 8.25725 8.23351 9.84392 9.87085 8.23351 8.14322 9.87085 9.83649 8.14322 8.02144 9.83649 9.79568 8.02144 7.86113 9.79568 9.77395 7.86113 7.73071 9.77395 9.77495 7.73071 7.60696 9.77495 9.78835 7.60696 7.49407 9.78835 9.89336 7.49407 7.30675 9.89336 10.1799 7.30675 7.11363 10.1799 10.582 7.11363 7.52114 10.582 10.9294 7.52114 8.05237 10.9294 11.2872 8.05237 8.4864 11.2872 11.7832 8.4864 8.82829 11.7832 11.9517 8.82829 9.15653 11.9517 11.9759 9.15653 9.41738 11.9759 12.1966 9.41738 9.57726 12.1966 11.5707 9.57726 9.83942 11.5707 12.0171 9.83942 9.95598 12.0171 12.1795 9.95598 9.79877 12.1795 12.2124 9.79877 9.90723 0 0.988366 0 0.420954 0.988366 2.73037 0.420954 0.513506 2.73037 1.20489 0.513506 0.684384 1.20489 1.39488 0.684384 1.07065 1.39488 1.6277 1.07065 1.19282 1.6277 1.90952 1.19282 1.3191 1.90952 2.24637 1.3191 1.55883 2.24637 2.59583 1.55883 2.00249 2.59583 3.02351 2.00249 2.33901 3.02351 3.49994 2.33901 2.67603 3.49994 3.97864 2.67603 3.03995 3.97864 4.38458 3.03995 3.43383 4.38458 4.91267 3.43383 3.88712 4.91267 5.60629 3.88712 4.3457 5.60629 6.67635 4.3457 4.88738 6.67635 7.34171 4.88738 5.51177 7.34171 7.80364 5.51177 6.14641 7.80364 8.01705 6.14641 6.48912 8.01705 8.17927 6.48912 6.60342 8.17927 8.25725 6.60342 6.55842 8.25725 8.23351 6.55842 6.43035 8.23351 8.14322 6.43035 6.26887 8.14322 8.02144 6.26887 6.09521 8.02144 7.86113 6.09521 5.8883 7.86113 7.73071 5.8883 5.63795 7.73071 7.60696 5.63795 5.38134 7.60696 7.49407 5.38134 5.14738 7.49407 7.30675 5.14738 4.94664 7.30675 7.11363 4.94664 4.45852 7.11363 7.52114 4.45852 4.70363 7.52114 8.05237 4.70363 5.22573 8.05237 8.4864 5.22573 5.63559 8.4864 8.82829 5.63559 6.1427 8.82829 9.15653 6.1427 6.52769 9.15653 9.41738 6.52769 6.88361 9.41738 9.57726 6.88361 7.37611 9.57726 9.83942 7.37611 7.53697 9.83942 9.95598 7.53697 7.58221 9.95598 9.79877 7.58221 7.89291 9.79877 9.90723 7.89291 7.15084 0 0.420954 0 0.140669 0.420954 0.513506 0.140669 0.341968 0.513506 0.684384 0.341968 0.523166 0.684384 1.07065 0.523166 0.634139 1.07065 1.19282 0.634139 0.647439 1.19282 1.3191 0.647439 0.613246 1.3191 1.55883 0.613246 1.08771 1.55883 2.00249 1.08771 1.32915 2.00249 2.33901 1.32915 1.49431 2.33901 2.67603 1.49431 1.78635 2.67603 3.03995 1.78635 2.10017 3.03995 3.43383 2.10017 2.42869 3.43383 3.88712 2.42869 2.77273 3.88712 4.3457 2.77273 3.13002 4.3457 4.88738 3.13002 3.52684 4.88738 5.51177 3.52684 3.97507 5.51177 6.14641 3.97507 4.44456 6.14641 6.48912 4.44456 4.77871 6.48912 6.60342 4.77871 4.81717 6.60342 6.55842 4.81717 4.73663 6.55842 6.43035 4.73663 4.64161 6.43035 6.26887 4.64161 4.53327 6.26887 6.09521 4.53327 4.35789 6.09521 5.8883 4.35789 4.04851 5.8883 5.63795 4.04851 3.69577 5.63795 5.38134 3.69577 3.38888 5.38134 5.14738 3.38888 3.06682 5.14738 4.94664 3.06682 2.69957 4.94664 4.45852 2.69957 2.45768 4.45852 4.70363 2.45768 2.79682 4.70363 5.22573 2.79682 2.52289 5.22573 5.63559 2.52289 2.97905 5.63559 6.1427 2.97905 3.38792 6.1427 6.52769 3.38792 4.00467 6.52769 6.88361 4.00467 4.68935 6.88361 7.37611 4.68935 5.10395 7.37611 7.53697 5.10395 5.46075 7.53697 7.58221 5.46075 5.87958 7.58221 7.89291 5.87958 6.34091 7.89291 7.15084 6.34091 7.00422 0 0.140669 0 0.0959221 0.140669 0.341968 0.0959221 0.192974 0.341968 0.523166 0.192974 0.289959 0.523166 0.634139 0.289959 0.432116 0.634139 0.647439 0.432116 0.662728 0.647439 0.613246 0.662728 1.06126 0.613246 1.08771 1.06126 0.824694 1.08771 1.32915 0.824694 0.536747 1.32915 1.49431 0.536747 0.64528 1.49431 1.78635 0.64528 0.804475 1.78635 2.10017 0.804475 1.06402 2.10017 2.42869 1.06402 1.37375 2.42869 2.77273 1.37375 1.68752 2.77273 3.13002 1.68752 1.9855 3.13002 3.52684 1.9855 2.27906 3.52684 3.97507 2.27906 2.57874 3.97507 4.44456 2.57874 2.88919 4.44456 4.77871 2.88919 3.09115 4.77871 4.81717 3.09115 3.1546 4.81717 4.73663 3.1546 3.14744 4.73663 4.64161 3.14744 3.09162 4.64161 4.53327 3.09162 2.9336 4.53327 4.35789 2.9336 2.70173 4.35789 4.04851 2.70173 2.37344 4.04851 3.69577 2.37344 2.03126 3.69577 3.38888 2.03126 1.69862 3.38888 3.06682 1.69862 1.27212 3.06682 2.69957 1.27212 0.796172 2.69957 2.45768 0.796172 -0.119848 2.45768 2.79682 -0.119848 0.650595 2.79682 2.52289 0.650595 0.635504 2.52289 2.97905 0.635504 0.43822 2.97905 3.38792 0.43822 0.846775 3.38792 4.00467 0.846775 2.02107 4.00467 4.68935 2.02107 2.68098 4.68935 5.10395 2.68098 3.17145 5.10395 5.46075 3.17145 3.54065 5.46075 5.87958 3.54065 3.92258 5.87958 6.34091 3.92258 4.41473 6.34091 7.00422 4.41473 4.66693 0 0.0959221 0 0.0445215 0.0959221 0.192974 0.0445215 0.0884743 0.192974 0.289959 0.0884743 0.147522 0.289959 0.432116 0.147522 0.24211 0.432116 0.662728 0.24211 0.352072 0.662728 1.06126 0.352072 0.291626 1.06126 0.824694 0.291626 0.163367 0.824694 0.536747 0.163367 -0.214165 0.536747 0.64528 -0.214165 -0.259257 0.64528 0.804475 -0.259257 -0.190047 0.804475 1.06402 -0.190047 0.0951439 1.06402 1.37375 0.0951439 0.399455 1.37375 1.68752 0.399455 0.661623 1.68752 1.9855 0.661623 0.890842 1.9855 2.27906 0.890842 1.09665 2.27906 2.57874 1.09665 1.26996 2.57874 2.88919 1.26996 1.40968 2.88919 3.09115 1.40968 1.5102 3.09115 3.1546 1.5102 1.59309 3.1546 3.14744 1.59309 1.63043 3.14744 3.09162 1.63043 1.5572 3.09162 2.9336 1.5572 1.43484 2.9336 2.70173 1.43484 1.24359 2.70173 2.37344 1.24359 0.933114 2.37344 2.03126 0.933114 0.579382 2.03126 1.69862 0.579382 0.225044 1.69862 1.27212 0.225044 -0.218032 1.27212 0.796172 -0.218032 -0.797566 0.796172 -0.119848 -0.797566 -0.0928403 -0.119848 0.650595 -0.0928403 0.0470324 0.650595 0.635504 0.0470324 0.414518 0.635504 0.43822 0.414518 0.915634 0.43822 0.846775 0.915634 1.63519 0.846775 2.02107 1.63519 0.766596 2.02107 2.68098 0.766596 0.892387 2.68098 3.17145 0.892387 1.26686 3.17145 3.54065 1.26686 1.69429 3.54065 3.92258 1.69429 1.98421 3.92258 4.41473 1.98421 2.25751 4.41473 4.66693 2.25751 2.29739 0 0.0445215 0 6.30186e-12 0.0445215 0.0884743 6.30186e-12 -1.29813e-11 0.0884743 0.147522 -1.29813e-11 -2.21276e-11 0.147522 0.24211 -2.21276e-11 -4.52339e-11 0.24211 0.352072 -4.52339e-11 -3.49924e-11 0.352072 0.291626 -3.49924e-11 -9.36417e-11 0.291626 0.163367 -9.36417e-11 -8.80604e-11 0.163367 -0.214165 -8.80604e-11 -1.20504e-10 -0.214165 -0.259257 -1.20504e-10 -2.33601e-10 -0.259257 -0.190047 -2.33601e-10 -9.45938e-11 -0.190047 0.0951439 -9.45938e-11 -6.85613e-11 0.0951439 0.399455 -6.85613e-11 -4.1936e-11 0.399455 0.661623 -4.1936e-11 -3.01692e-11 0.661623 0.890842 -3.01692e-11 -2.3702e-11 0.890842 1.09665 -2.3702e-11 -2.03343e-11 1.09665 1.26996 -2.03343e-11 -1.83315e-11 1.26996 1.40968 -1.83315e-11 -1.72409e-11 1.40968 1.5102 -1.72409e-11 -1.66256e-11 1.5102 1.59309 -1.66256e-11 -1.59195e-11 1.59309 1.63043 -1.59195e-11 -1.52283e-11 1.63043 1.5572 -1.52283e-11 -1.49011e-11 1.5572 1.43484 -1.49011e-11 -1.58627e-11 1.43484 1.24359 -1.58627e-11 -1.69968e-11 1.24359 0.933114 -1.69968e-11 -1.88497e-11 0.933114 0.579382 -1.88497e-11 -2.18355e-11 0.579382 0.225044 -2.18355e-11 -3.19454e-11 0.225044 -0.218032 -3.19454e-11 -1.20606e-11 -0.218032 -0.797566 -1.20606e-11 -2.27481e-10 -0.797566 -0.0928403 -2.27481e-10 2.39484e-10 -0.0928403 0.0470324 2.39484e-10 -6.71512e-10 0.0470324 0.414518 -6.71512e-10 -7.41397e-10 0.414518 0.915634 -7.41397e-10 -1.6201e-09 0.915634 1.63519 -1.6201e-09 -3.61689e-10 1.63519 0.766596 -3.61689e-10 -7.54652e-12 0.766596 0.892387 -7.54652e-12 -1.07881e-11 0.892387 1.26686 -1.07881e-11 -8.99647e-12 1.26686 1.69429 -8.99647e-12 -8.57408e-12 1.69429 1.98421 -8.57408e-12 -8.50965e-12 1.98421 2.25751 -8.50965e-12 -8.25844e-12 2.25751 2.29739 -8.25844e-12 -7.83515e-12 0 6.30186e-12 0 -0.0445215 6.30186e-12 -1.29813e-11 -0.0445215 -0.0884743 -1.29813e-11 -2.21276e-11 -0.0884743 -0.147522 -2.21276e-11 -4.52339e-11 -0.147522 -0.24211 -4.52339e-11 -3.49924e-11 -0.24211 -0.352072 -3.49924e-11 -9.36417e-11 -0.352072 -0.291626 -9.36417e-11 -8.80604e-11 -0.291626 -0.163367 -8.80604e-11 -1.20504e-10 -0.163367 0.214165 -1.20504e-10 -2.33601e-10 0.214165 0.259257 -2.33601e-10 -9.45938e-11 0.259257 0.190047 -9.45938e-11 -6.85613e-11 0.190047 -0.0951439 -6.85613e-11 -4.1936e-11 -0.0951439 -0.399455 -4.1936e-11 -3.01692e-11 -0.399455 -0.661623 -3.01692e-11 -2.3702e-11 -0.661623 -0.890842 -2.3702e-11 -2.03343e-11 -0.890842 -1.09665 -2.03343e-11 -1.83315e-11 -1.09665 -1.26996 -1.83315e-11 -1.72409e-11 -1.26996 -1.40968 -1.72409e-11 -1.66256e-11 -1.40968 -1.5102 -1.66256e-11 -1.59195e-11 -1.5102 -1.59309 -1.59195e-11 -1.52283e-11 -1.59309 -1.63043 -1.52283e-11 -1.49011e-11 -1.63043 -1.5572 -1.49011e-11 -1.58627e-11 -1.5572 -1.43484 -1.58627e-11 -1.69968e-11 -1.43484 -1.24359 -1.69968e-11 -1.88497e-11 -1.24359 -0.933114 -1.88497e-11 -2.18355e-11 -0.933114 -0.579382 -2.18355e-11 -3.19454e-11 -0.579382 -0.225044 -3.19454e-11 -1.20606e-11 -0.225044 0.218032 -1.20606e-11 -2.27481e-10 0.218032 0.797566 -2.27481e-10 2.39484e-10 0.797566 0.0928403 2.39484e-10 -6.71512e-10 0.0928403 -0.0470324 -6.71512e-10 -7.41397e-10 -0.0470324 -0.414518 -7.41397e-10 -1.6201e-09 -0.414518 -0.915634 -1.6201e-09 -3.61689e-10 -0.915634 -1.63519 -3.61689e-10 -7.54652e-12 -1.63519 -0.766596 -7.54652e-12 -1.07881e-11 -0.766596 -0.892387 -1.07881e-11 -8.99647e-12 -0.892387 -1.26686 -8.99647e-12 -8.57408e-12 -1.26686 -1.69429 -8.57408e-12 -8.50965e-12 -1.69429 -1.98421 -8.50965e-12 -8.25844e-12 -1.98421 -2.25751 -8.25844e-12 -7.83515e-12 -2.25751 -2.29739 0 -0.0445215 0 -0.0959221 -0.0445215 -0.0884743 -0.0959221 -0.192974 -0.0884743 -0.147522 -0.192974 -0.289959 -0.147522 -0.24211 -0.289959 -0.432116 -0.24211 -0.352072 -0.432116 -0.662728 -0.352072 -0.291626 -0.662728 -1.06126 -0.291626 -0.163367 -1.06126 -0.824694 -0.163367 0.214165 -0.824694 -0.536747 0.214165 0.259257 -0.536747 -0.64528 0.259257 0.190047 -0.64528 -0.804475 0.190047 -0.0951439 -0.804475 -1.06402 -0.0951439 -0.399455 -1.06402 -1.37375 -0.399455 -0.661623 -1.37375 -1.68752 -0.661623 -0.890842 -1.68752 -1.9855 -0.890842 -1.09665 -1.9855 -2.27906 -1.09665 -1.26996 -2.27906 -2.57874 -1.26996 -1.40968 -2.57874 -2.88919 -1.40968 -1.5102 -2.88919 -3.09115 -1.5102 -1.59309 -3.09115 -3.1546 -1.59309 -1.63043 -3.1546 -3.14744 -1.63043 -1.5572 -3.14744 -3.09162 -1.5572 -1.43484 -3.09162 -2.9336 -1.43484 -1.24359 -2.9336 -2.70173 -1.24359 -0.933114 -2.70173 -2.37344 -0.933114 -0.579382 -2.37344 -2.03126 -0.579382 -0.225044 -2.03126 -1.69862 -0.225044 0.218032 -1.69862 -1.27212 0.218032 0.797566 -1.27212 -0.796172 0.797566 0.0928403 -0.796172 0.119848 0.0928403 -0.0470324 0.119848 -0.650595 -0.0470324 -0.414518 -0.650595 -0.635504 -0.414518 -0.915634 -0.635504 -0.43822 -0.915634 -1.63519 -0.43822 -0.846775 -1.63519 -0.766596 -0.846775 -2.02107 -0.766596 -0.892387 -2.02107 -2.68098 -0.892387 -1.26686 -2.68098 -3.17145 -1.26686 -1.69429 -3.17145 -3.54065 -1.69429 -1.98421 -3.54065 -3.92258 -1.98421 -2.25751 -3.92258 -4.41473 -2.25751 -2.29739 -4.41473 -4.66693 0 -0.0959221 0 -0.140669 -0.0959221 -0.192974 -0.140669 -0.341968 -0.192974 -0.289959 -0.341968 -0.523166 -0.289959 -0.432116 -0.523166 -0.634139 -0.432116 -0.662728 -0.634139 -0.647439 -0.662728 -1.06126 -0.647439 -0.613246 -1.06126 -0.824694 -0.613246 -1.08771 -0.824694 -0.536747 -1.08771 -1.32915 -0.536747 -0.64528 -1.32915 -1.49431 -0.64528 -0.804475 -1.49431 -1.78635 -0.804475 -1.06402 -1.78635 -2.10017 -1.06402 -1.37375 -2.10017 -2.42869 -1.37375 -1.68752 -2.42869 -2.77273 -1.68752 -1.9855 -2.77273 -3.13002 -1.9855 -2.27906 -3.13002 -3.52684 -2.27906 -2.57874 -3.52684 -3.97507 -2.57874 -2.88919 -3.97507 -4.44456 -2.88919 -3.09115 -4.44456 -4.77871 -3.09115 -3.1546 -4.77871 -4.81717 -3.1546 -3.14744 -4.81717 -4.73663 -3.14744 -3.09162 -4.73663 -4.64161 -3.09162 -2.9336 -4.64161 -4.53327 -2.9336 -2.70173 -4.53327 -4.35789 -2.70173 -2.37344 -4.35789 -4.04851 -2.37344 -2.03126 -4.04851 -3.69577 -2.03126 -1.69862 -3.69577 -3.38888 -1.69862 -1.27212 -3.38888 -3.06682 -1.27212 -0.796172 -3.06682 -2.69957 -0.796172 0.119848 -2.69957 -2.45768 0.119848 -0.650595 -2.45768 -2.79682 -0.650595 -0.635504 -2.79682 -2.52289 -0.635504 -0.43822 -2.52289 -2.97905 -0.43822 -0.846775 -2.97905 -3.38792 -0.846775 -2.02107 -3.38792 -4.00467 -2.02107 -2.68098 -4.00467 -4.68935 -2.68098 -3.17145 -4.68935 -5.10395 -3.17145 -3.54065 -5.10395 -5.46075 -3.54065 -3.92258 -5.46075 -5.87958 -3.92258 -4.41473 -5.87958 -6.34091 -4.41473 -4.66693 -6.34091 -7.00422 0 -0.140669 0 -0.420954 -0.140669 -0.341968 -0.420954 -0.513506 -0.341968 -0.523166 -0.513506 -0.684384 -0.523166 -0.634139 -0.684384 -1.07065 -0.634139 -0.647439 -1.07065 -1.19282 -0.647439 -0.613246 -1.19282 -1.3191 -0.613246 -1.08771 -1.3191 -1.55883 -1.08771 -1.32915 -1.55883 -2.00249 -1.32915 -1.49431 -2.00249 -2.33901 -1.49431 -1.78635 -2.33901 -2.67603 -1.78635 -2.10017 -2.67603 -3.03995 -2.10017 -2.42869 -3.03995 -3.43383 -2.42869 -2.77273 -3.43383 -3.88712 -2.77273 -3.13002 -3.88712 -4.3457 -3.13002 -3.52684 -4.3457 -4.88738 -3.52684 -3.97507 -4.88738 -5.51177 -3.97507 -4.44456 -5.51177 -6.14641 -4.44456 -4.77871 -6.14641 -6.48912 -4.77871 -4.81717 -6.48912 -6.60342 -4.81717 -4.73663 -6.60342 -6.55842 -4.73663 -4.64161 -6.55842 -6.43035 -4.64161 -4.53327 -6.43035 -6.26887 -4.53327 -4.35789 -6.26887 -6.09521 -4.35789 -4.04851 -6.09521 -5.8883 -4.04851 -3.69577 -5.8883 -5.63795 -3.69577 -3.38888 -5.63795 -5.38134 -3.38888 -3.06682 -5.38134 -5.14738 -3.06682 -2.69957 -5.14738 -4.94664 -2.69957 -2.45768 -4.94664 -4.45852 -2.45768 -2.79682 -4.45852 -4.70363 -2.79682 -2.52289 -4.70363 -5.22573 -2.52289 -2.97905 -5.22573 -5.63559 -2.97905 -3.38792 -5.63559 -6.1427 -3.38792 -4.00467 -6.1427 -6.52769 -4.00467 -4.68935 -6.52769 -6.88361 -4.68935 -5.10395 -6.88361 -7.37611 -5.10395 -5.46075 -7.37611 -7.53697 -5.46075 -5.87958 -7.53697 -7.58221 -5.87958 -6.34091 -7.58221 -7.89291 -6.34091 -7.00422 -7.89291 -7.15084 0 -0.420954 0 -0.988366 -0.420954 -0.513506 -0.988366 -2.73037 -0.513506 -0.684384 -2.73037 -1.20489 -0.684384 -1.07065 -1.20489 -1.39488 -1.07065 -1.19282 -1.39488 -1.6277 -1.19282 -1.3191 -1.6277 -1.90952 -1.3191 -1.55883 -1.90952 -2.24637 -1.55883 -2.00249 -2.24637 -2.59583 -2.00249 -2.33901 -2.59583 -3.02351 -2.33901 -2.67603 -3.02351 -3.49994 -2.67603 -3.03995 -3.49994 -3.97864 -3.03995 -3.43383 -3.97864 -4.38458 -3.43383 -3.88712 -4.38458 -4.91267 -3.88712 -4.3457 -4.91267 -5.60629 -4.3457 -4.88738 -5.60629 -6.67635 -4.88738 -5.51177 -6.67635 -7.34171 -5.51177 -6.14641 -7.3