# vtk DataFile Version 3.0
#This file was generated by the deal.II library on 2015/9/2 at 7:55: 4
ASCII
DATASET UNSTRUCTURED_GRID

POINTS 41912 double
0 0 0
0.05 0 0
0 0.05 0
0.05 0.05 0
0.05 0 0
0.1 0 0
0.05 0.05 0
0.1 0.05 0
0.1 0 0
0.15 0 0
0.1 0.05 0
0.15 0.05 0
0.15 0 0
0.2 0 0
0.15 0.05 0
0.2 0.05 0
0.2 0 0
0.25 0 0
0.2 0.05 0
0.25 0.05 0
0.25 0 0
0.3 0 0
0.25 0.05 0
0.3 0.05 0
0.3 0 0
0.35 0 0
0.3 0.05 0
0.35 0.05 0
0.35 0 0
0.4 0 0
0.35 0.05 0
0.4 0.05 0
0.4 0 0
0.45 0 0
0.4 0.05 0
0.45 0.05 0
0.45 0 0
0.5 0 0
0.45 0.05 0
0.5 0.05 0
0.5 0 0
0.55 0 0
0.5 0.05 0
0.55 0.05 0
0.55 0 0
0.6 0 0
0.55 0.05 0
0.6 0.05 0
0.6 0 0
0.65 0 0
0.6 0.05 0
0.65 0.05 0
0.65 0 0
0.7 0 0
0.65 0.05 0
0.7 0.05 0
0.7 0 0
0.75 0 0
0.7 0.05 0
0.75 0.05 0
0.75 0 0
0.8 0 0
0.75 0.05 0
0.8 0.05 0
0.8 0 0
0.85 0 0
0.8 0.05 0
0.85 0.05 0
0.85 0 0
0.9 0 0
0.85 0.05 0
0.9 0.05 0
0.9 0 0
0.95 0 0
0.9 0.05 0
0.95 0.05 0
0.95 0 0
1 0 0
0.95 0.05 0
1 0.05 0
1 0 0
1.05 0 0
1 0.05 0
1.05 0.05 0
1.05 0 0
1.1 0 0
1.05 0.05 0
1.1 0.05 0
1.1 0 0
1.15 0 0
1.1 0.05 0
1.15 0.05 0
1.15 0 0
1.2 0 0
1.15 0.05 0
1.2 0.05 0
1.2 0 0
1.25 0 0
1.2 0.05 0
1.25 0.05 0
1.45 0 0
1.5 0 0
1.45 0.05 0
1.5 0.05 0
1.5 0 0
1.55 0 0
1.5 0.05 0
1.55 0.05 0
1.55 0 0
1.6 0 0
1.55 0.05 0
1.6 0.05 0
1.6 0 0
1.65 0 0
1.6 0.05 0
1.65 0.05 0
1.65 0 0
1.7 0 0
1.65 0.05 0
1.7 0.05 0
1.7 0 0
1.75 0 0
1.7 0.05 0
1.75 0.05 0
1.75 0 0
1.8 0 0
1.75 0.05 0
1.8 0.05 0
1.8 0 0
1.85 0 0
1.8 0.05 0
1.85 0.05 0
1.85 0 0
1.9 0 0
1.85 0.05 0
1.9 0.05 0
1.9 0 0
1.95 0 0
1.9 0.05 0
1.95 0.05 0
1.95 0 0
2 0 0
1.95 0.05 0
2 0.05 0
0 0.05 0
0.05 0.05 0
0 0.1 0
0.05 0.1 0
0.05 0.05 0
0.1 0.05 0
0.05 0.1 0
0.1 0.1 0
0.1 0.05 0
0.15 0.05 0
0.1 0.1 0
0.15 0.1 0
0.15 0.05 0
0.2 0.05 0
0.15 0.1 0
0.2 0.1 0
0.2 0.05 0
0.25 0.05 0
0.2 0.1 0
0.25 0.1 0
0.25 0.05 0
0.3 0.05 0
0.25 0.1 0
0.3 0.1 0
0.3 0.05 0
0.35 0.05 0
0.3 0.1 0
0.35 0.1 0
1.15 0.05 0
1.2 0.05 0
1.15 0.1 0
1.2 0.1 0
1.2 0.05 0
1.25 0.05 0
1.2 0.1 0
1.25 0.1 0
1.55 0.05 0
1.6 0.05 0
1.55 0.1 0
1.6 0.1 0
1.6 0.05 0
1.65 0.05 0
1.6 0.1 0
1.65 0.1 0
1.65 0.05 0
1.7 0.05 0
1.65 0.1 0
1.7 0.1 0
1.7 0.05 0
1.75 0.05 0
1.7 0.1 0
1.75 0.1 0
1.75 0.05 0
1.8 0.05 0
1.75 0.1 0
1.8 0.1 0
1.8 0.05 0
1.85 0.05 0
1.8 0.1 0
1.85 0.1 0
1.85 0.05 0
1.9 0.05 0
1.85 0.1 0
1.9 0.1 0
1.9 0.05 0
1.95 0.05 0
1.9 0.1 0
1.95 0.1 0
1.95 0.05 0
2 0.05 0
1.95 0.1 0
2 0.1 0
0.15 0.1 0
0.2 0.1 0
0.15 0.15 0
0.2 0.15 0
0.2 0.1 0
0.25 0.1 0
0.2 0.15 0
0.25 0.15 0
0.25 0.1 0
0.3 0.1 0
0.25 0.15 0
0.3 0.15 0
0.3 0.1 0
0.35 0.1 0
0.3 0.15 0
0.35 0.15 0
1.65 0.1 0
1.7 0.1 0
1.65 0.15 0
1.7 0.15 0
1.7 0.1 0
1.75 0.1 0
1.7 0.15 0
1.75 0.15 0
1.75 0.1 0
1.8 0.1 0
1.75 0.15 0
1.8 0.15 0
1.8 0.1 0
1.85 0.1 0
1.8 0.15 0
1.85 0.15 0
1.85 0.1 0
1.9 0.1 0
1.85 0.15 0
1.9 0.15 0
1.9 0.1 0
1.95 0.1 0
1.9 0.15 0
1.95 0.15 0
1.95 0.1 0
2 0.1 0
1.95 0.15 0
2 0.15 0
0.3 0.15 0
0.35 0.15 0
0.3 0.2 0
0.35 0.2 0
1.75 0.15 0
1.8 0.15 0
1.75 0.2 0
1.8 0.2 0
1.8 0.15 0
1.85 0.15 0
1.8 0.2 0
1.85 0.2 0
1.85 0.15 0
1.9 0.15 0
1.85 0.2 0
1.9 0.2 0
1.9 0.15 0
1.95 0.15 0
1.9 0.2 0
1.95 0.2 0
1.95 0.15 0
2 0.15 0
1.95 0.2 0
2 0.2 0
0.4 0.2 0
0.45 0.2 0
0.4 0.25 0
0.45 0.25 0
0.8 0.2 0
0.85 0.2 0
0.8 0.25 0
0.85 0.25 0
0.85 0.2 0
0.9 0.2 0
0.85 0.25 0
0.9 0.25 0
0.9 0.2 0
0.95 0.2 0
0.9 0.25 0
0.95 0.25 0
0.95 0.2 0
1 0.2 0
0.95 0.25 0
1 0.25 0
1.8 0.2 0
1.85 0.2 0
1.8 0.25 0
1.85 0.25 0
1.85 0.2 0
1.9 0.2 0
1.85 0.25 0
1.9 0.25 0
1.9 0.2 0
1.95 0.2 0
1.9 0.25 0
1.95 0.25 0
1.95 0.2 0
2 0.2 0
1.95 0.25 0
2 0.25 0
0 0.25 0
0.05 0.25 0
0 0.3 0
0.05 0.3 0
0.05 0.25 0
0.1 0.25 0
0.05 0.3 0
0.1 0.3 0
0.1 0.25 0
0.15 0.25 0
0.1 0.3 0
0.15 0.3 0
0.95 0.25 0
1 0.25 0
0.95 0.3 0
1 0.3 0
1.25 0.25 0
1.3 0.25 0
1.25 0.3 0
1.3 0.3 0
1.3 0.25 0
1.35 0.25 0
1.3 0.3 0
1.35 0.3 0
1.9 0.25 0
1.95 0.25 0
1.9 0.3 0
1.95 0.3 0
1.95 0.25 0
2 0.25 0
1.95 0.3 0
2 0.3 0
0 0.3 0
0.05 0.3 0
0 0.35 0
0.05 0.35 0
0.05 0.3 0
0.1 0.3 0
0.05 0.35 0
0.1 0.35 0
0.1 0.3 0
0.15 0.3 0
0.1 0.35 0
0.15 0.35 0
0.15 0.3 0
0.2 0.3 0
0.15 0.35 0
0.2 0.35 0
0.2 0.3 0
0.25 0.3 0
0.2 0.35 0
0.25 0.35 0
0.6 0.3 0
0.65 0.3 0
0.6 0.35 0
0.65 0.35 0
1.2 0.3 0
1.25 0.3 0
1.2 0.35 0
1.25 0.35 0
1.25 0.3 0
1.3 0.3 0
1.25 0.35 0
1.3 0.35 0
1.3 0.3 0
1.35 0.3 0
1.3 0.35 0
1.35 0.35 0
1.35 0.3 0
1.4 0.3 0
1.35 0.35 0
1.4 0.35 0
0 0.35 0
0.05 0.35 0
0 0.4 0
0.05 0.4 0
0.05 0.35 0
0.1 0.35 0
0.05 0.4 0
0.1 0.4 0
0.1 0.35 0
0.15 0.35 0
0.1 0.4 0
0.15 0.4 0
0.15 0.35 0
0.2 0.35 0
0.15 0.4 0
0.2 0.4 0
0.2 0.35 0
0.25 0.35 0
0.2 0.4 0
0.25 0.4 0
0.25 0.35 0
0.3 0.35 0
0.25 0.4 0
0.3 0.4 0
0.3 0.35 0
0.35 0.35 0
0.3 0.4 0
0.35 0.4 0
0.7 0.35 0
0.75 0.35 0
0.7 0.4 0
0.75 0.4 0
1.2 0.35 0
1.25 0.35 0
1.2 0.4 0
1.25 0.4 0
1.25 0.35 0
1.3 0.35 0
1.25 0.4 0
1.3 0.4 0
1.3 0.35 0
1.35 0.35 0
1.3 0.4 0
1.35 0.4 0
1.35 0.35 0
1.4 0.35 0
1.35 0.4 0
1.4 0.4 0
1.4 0.35 0
1.45 0.35 0
1.4 0.4 0
1.45 0.4 0
1.45 0.35 0
1.5 0.35 0
1.45 0.4 0
1.5 0.4 0
0 0.4 0
0.05 0.4 0
0 0.45 0
0.05 0.45 0
0.05 0.4 0
0.1 0.4 0
0.05 0.45 0
0.1 0.45 0
0.1 0.4 0
0.15 0.4 0
0.1 0.45 0
0.15 0.45 0
0.15 0.4 0
0.2 0.4 0
0.15 0.45 0
0.2 0.45 0
0.2 0.4 0
0.25 0.4 0
0.2 0.45 0
0.25 0.45 0
0.25 0.4 0
0.3 0.4 0
0.25 0.45 0
0.3 0.45 0
0.3 0.4 0
0.35 0.4 0
0.3 0.45 0
0.35 0.45 0
0.35 0.4 0
0.4 0.4 0
0.35 0.45 0
0.4 0.45 0
0.4 0.4 0
0.45 0.4 0
0.4 0.45 0
0.45 0.45 0
0.75 0.4 0
0.8 0.4 0
0.75 0.45 0
0.8 0.45 0
0.8 0.4 0
0.85 0.4 0
0.8 0.45 0
0.85 0.45 0
0.85 0.4 0
0.9 0.4 0
0.85 0.45 0
0.9 0.45 0
1.15 0.4 0
1.2 0.4 0
1.15 0.45 0
1.2 0.45 0
1.2 0.4 0
1.25 0.4 0
1.2 0.45 0
1.25 0.45 0
1.25 0.4 0
1.3 0.4 0
1.25 0.45 0
1.3 0.45 0
1.3 0.4 0
1.35 0.4 0
1.3 0.45 0
1.35 0.45 0
1.35 0.4 0
1.4 0.4 0
1.35 0.45 0
1.4 0.45 0
1.4 0.4 0
1.45 0.4 0
1.4 0.45 0
1.45 0.45 0
1.45 0.4 0
1.5 0.4 0
1.45 0.45 0
1.5 0.45 0
1.5 0.4 0
1.55 0.4 0
1.5 0.45 0
1.55 0.45 0
1.55 0.4 0
1.6 0.4 0
1.55 0.45 0
1.6 0.45 0
0 0.45 0
0.05 0.45 0
0 0.5 0
0.05 0.5 0
0.05 0.45 0
0.1 0.45 0
0.05 0.5 0
0.1 0.5 0
0.1 0.45 0
0.15 0.45 0
0.1 0.5 0
0.15 0.5 0
0.15 0.45 0
0.2 0.45 0
0.15 0.5 0
0.2 0.5 0
0.2 0.45 0
0.25 0.45 0
0.2 0.5 0
0.25 0.5 0
0.25 0.45 0
0.3 0.45 0
0.25 0.5 0
0.3 0.5 0
0.3 0.45 0
0.35 0.45 0
0.3 0.5 0
0.35 0.5 0
0.35 0.45 0
0.4 0.45 0
0.35 0.5 0
0.4 0.5 0
0.4 0.45 0
0.45 0.45 0
0.4 0.5 0
0.45 0.5 0
0.45 0.45 0
0.5 0.45 0
0.45 0.5 0
0.5 0.5 0
0.5 0.45 0
0.55 0.45 0
0.5 0.5 0
0.55 0.5 0
0.8 0.45 0
0.85 0.45 0
0.8 0.5 0
0.85 0.5 0
0.85 0.45 0
0.9 0.45 0
0.85 0.5 0
0.9 0.5 0
0.9 0.45 0
0.95 0.45 0
0.9 0.5 0
0.95 0.5 0
0.95 0.45 0
1 0.45 0
0.95 0.5 0
1 0.5 0
1.15 0.45 0
1.2 0.45 0
1.15 0.5 0
1.2 0.5 0
1.2 0.45 0
1.25 0.45 0
1.2 0.5 0
1.25 0.5 0
1.25 0.45 0
1.3 0.45 0
1.25 0.5 0
1.3 0.5 0
1.3 0.45 0
1.35 0.45 0
1.3 0.5 0
1.35 0.5 0
1.35 0.45 0
1.4 0.45 0
1.35 0.5 0
1.4 0.5 0
1.4 0.45 0
1.45 0.45 0
1.4 0.5 0
1.45 0.5 0
1.45 0.45 0
1.5 0.45 0
1.45 0.5 0
1.5 0.5 0
1.5 0.45 0
1.55 0.45 0
1.5 0.5 0
1.55 0.5 0
1.55 0.45 0
1.6 0.45 0
1.55 0.5 0
1.6 0.5 0
1.6 0.45 0
1.65 0.45 0
1.6 0.5 0
1.65 0.5 0
1.9 0.45 0
1.95 0.45 0
1.9 0.5 0
1.95 0.5 0
0 0.5 0
0.05 0.5 0
0 0.55 0
0.05 0.55 0
0.05 0.5 0
0.1 0.5 0
0.05 0.55 0
0.1 0.55 0
0.1 0.5 0
0.15 0.5 0
0.1 0.55 0
0.15 0.55 0
0.15 0.5 0
0.2 0.5 0
0.15 0.55 0
0.2 0.55 0
0.2 0.5 0
0.25 0.5 0
0.2 0.55 0
0.25 0.55 0
0.25 0.5 0
0.3 0.5 0
0.25 0.55 0
0.3 0.55 0
0.3 0.5 0
0.35 0.5 0
0.3 0.55 0
0.35 0.55 0
0.35 0.5 0
0.4 0.5 0
0.35 0.55 0
0.4 0.55 0
0.4 0.5 0
0.45 0.5 0
0.4 0.55 0
0.45 0.55 0
0.45 0.5 0
0.5 0.5 0
0.45 0.55 0
0.5 0.55 0
0.5 0.5 0
0.55 0.5 0
0.5 0.55 0
0.55 0.55 0
0.8 0.5 0
0.85 0.5 0
0.8 0.55 0
0.85 0.55 0
0.85 0.5 0
0.9 0.5 0
0.85 0.55 0
0.9 0.55 0
0.9 0.5 0
0.95 0.5 0
0.9 0.55 0
0.95 0.55 0
0.95 0.5 0
1 0.5 0
0.95 0.55 0
1 0.55 0
1.15 0.5 0
1.2 0.5 0
1.15 0.55 0
1.2 0.55 0
1.2 0.5 0
1.25 0.5 0
1.2 0.55 0
1.25 0.55 0
1.25 0.5 0
1.3 0.5 0
1.25 0.55 0
1.3 0.55 0
1.3 0.5 0
1.35 0.5 0
1.3 0.55 0
1.35 0.55 0
1.35 0.5 0
1.4 0.5 0
1.35 0.55 0
1.4 0.55 0
1.4 0.5 0
1.45 0.5 0
1.4 0.55 0
1.45 0.55 0
1.45 0.5 0
1.5 0.5 0
1.45 0.55 0
1.5 0.55 0
1.5 0.5 0
1.55 0.5 0
1.5 0.55 0
1.55 0.55 0
1.55 0.5 0
1.6 0.5 0
1.55 0.55 0
1.6 0.55 0
1.6 0.5 0
1.65 0.5 0
1.6 0.55 0
1.65 0.55 0
1.9 0.5 0
1.95 0.5 0
1.9 0.55 0
1.95 0.55 0
0 0.55 0
0.05 0.55 0
0 0.6 0
0.05 0.6 0
0.05 0.55 0
0.1 0.55 0
0.05 0.6 0
0.1 0.6 0
0.1 0.55 0
0.15 0.55 0
0.1 0.6 0
0.15 0.6 0
0.15 0.55 0
0.2 0.55 0
0.15 0.6 0
0.2 0.6 0
0.2 0.55 0
0.25 0.55 0
0.2 0.6 0
0.25 0.6 0
0.25 0.55 0
0.3 0.55 0
0.25 0.6 0
0.3 0.6 0
0.3 0.55 0
0.35 0.55 0
0.3 0.6 0
0.35 0.6 0
0.35 0.55 0
0.4 0.55 0
0.35 0.6 0
0.4 0.6 0
0.4 0.55 0
0.45 0.55 0
0.4 0.6 0
0.45 0.6 0
0.75 0.55 0
0.8 0.55 0
0.75 0.6 0
0.8 0.6 0
0.8 0.55 0
0.85 0.55 0
0.8 0.6 0
0.85 0.6 0
0.85 0.55 0
0.9 0.55 0
0.85 0.6 0
0.9 0.6 0
1.15 0.55 0
1.2 0.55 0
1.15 0.6 0
1.2 0.6 0
1.2 0.55 0
1.25 0.55 0
1.2 0.6 0
1.25 0.6 0
1.25 0.55 0
1.3 0.55 0
1.25 0.6 0
1.3 0.6 0
1.3 0.55 0
1.35 0.55 0
1.3 0.6 0
1.35 0.6 0
1.35 0.55 0
1.4 0.55 0
1.35 0.6 0
1.4 0.6 0
1.4 0.55 0
1.45 0.55 0
1.4 0.6 0
1.45 0.6 0
1.45 0.55 0
1.5 0.55 0
1.45 0.6 0
1.5 0.6 0
1.5 0.55 0
1.55 0.55 0
1.5 0.6 0
1.55 0.6 0
1.55 0.55 0
1.6 0.55 0
1.55 0.6 0
1.6 0.6 0
0 0.6 0
0.05 0.6 0
0 0.65 0
0.05 0.65 0
0.05 0.6 0
0.1 0.6 0
0.05 0.65 0
0.1 0.65 0
0.1 0.6 0
0.15 0.6 0
0.1 0.65 0
0.15 0.65 0
0.15 0.6 0
0.2 0.6 0
0.15 0.65 0
0.2 0.65 0
0.2 0.6 0
0.25 0.6 0
0.2 0.65 0
0.25 0.65 0
0.25 0.6 0
0.3 0.6 0
0.25 0.65 0
0.3 0.65 0
0.3 0.6 0
0.35 0.6 0
0.3 0.65 0
0.35 0.65 0
0.7 0.6 0
0.75 0.6 0
0.7 0.65 0
0.75 0.65 0
1.2 0.6 0
1.25 0.6 0
1.2 0.65 0
1.25 0.65 0
1.25 0.6 0
1.3 0.6 0
1.25 0.65 0
1.3 0.65 0
1.3 0.6 0
1.35 0.6 0
1.3 0.65 0
1.35 0.65 0
1.35 0.6 0
1.4 0.6 0
1.35 0.65 0
1.4 0.65 0
1.4 0.6 0
1.45 0.6 0
1.4 0.65 0
1.45 0.65 0
1.45 0.6 0
1.5 0.6 0
1.45 0.65 0
1.5 0.65 0
0 0.65 0
0.05 0.65 0
0 0.7 0
0.05 0.7 0
0.05 0.65 0
0.1 0.65 0
0.05 0.7 0
0.1 0.7 0
0.1 0.65 0
0.15 0.65 0
0.1 0.7 0
0.15 0.7 0
0.15 0.65 0
0.2 0.65 0
0.15 0.7 0
0.2 0.7 0
0.2 0.65 0
0.25 0.65 0
0.2 0.7 0
0.25 0.7 0
0.6 0.65 0
0.65 0.65 0
0.6 0.7 0
0.65 0.7 0
1.2 0.65 0
1.25 0.65 0
1.2 0.7 0
1.25 0.7 0
1.25 0.65 0
1.3 0.65 0
1.25 0.7 0
1.3 0.7 0
1.3 0.65 0
1.35 0.65 0
1.3 0.7 0
1.35 0.7 0
[...]
POINT_DATA 41912
SCALARS x_displacement double 1
LOOKUP_TABLE default
0 1.3251 0 0.774782 1.3251 2.3356 0.774782 1.59486 2.3356 3.18371 1.59486 2.3224 3.18371 3.91566 2.3224 2.97097 3.91566 4.56051 2.97097 3.5546 4.56051 5.14842 3.5546 4.08752 5.14842 5.70696 4.08752 4.58917 5.70696 6.25157 4.58917 5.07882 6.25157 6.78833 5.07882 5.562 6.78833 7.3194 5.562 6.04499 7.3194 7.84774 6.04499 6.52825 7.84774 8.37484 6.52825 7.0103 8.37484 8.90302 7.0103 7.49082 8.90302 9.42953 7.49082 7.97402 9.42953 9.94152 7.97402 8.45985 9.94152 10.4323 8.45985 8.94571 10.4323 10.9093 8.94571 9.43679 10.9093 11.3826 9.43679 9.92883 11.3826 11.8605 9.92883 10.4157 11.8605 12.354 10.4157 10.8996 12.354 12.8689 10.8996 11.376 12.8689 13.4156 11.376 11.8359 13.4156 13.9988 11.8359 12.2889 13.9988 14.5662 12.2889 12.7303 14.5662 15.0034 12.7303 13.1233 16.5712 16.9535 14.2519 14.6473 16.9535 17.271 14.6473 15.0166 17.271 17.5413 15.0166 15.3315 17.5413 17.7644 15.3315 15.5839 17.7644 17.9254 15.5839 15.7738 17.9254 18.0256 15.7738 15.9159 18.0256 18.0765 15.9159 16.014 18.0765 18.0894 16.014 16.0734 18.0894 18.0793 16.0734 16.1018 18.0793 18.0651 16.1018 16.1107 18.0651 18.0601 16.1107 16.1134 0 0.774782 0 0.529581 0.774782 1.59486 0.529581 1.08531 1.59486 2.3224 1.08531 1.64508 2.3224 2.97097 1.64508 2.17239 2.97097 3.5546 2.17239 2.66336 3.5546 4.08752 2.66336 3.11167 4.08752 4.58917 3.11167 3.5123 12.2889 12.7303 10.6704 11.0277 12.7303 13.1233 11.0277 11.3516 15.0166 15.3315 12.9446 13.2612 15.3315 15.5839 13.2612 13.5188 15.5839 15.7738 13.5188 13.735 15.7738 15.9159 13.735 13.9089 15.9159 16.014 13.9089 14.0395 16.014 16.0734 14.0395 14.1251 16.0734 16.1018 14.1251 14.1695 16.1018 16.1107 14.1695 14.1836 16.1107 16.1134 14.1836 14.1879 1.64508 2.17239 1.0454 1.46082 2.17239 2.66336 1.46082 1.86537 2.66336 3.11167 1.86537 2.23824 3.11167 3.5123 2.23824 2.562 13.5188 13.735 11.5433 11.8013 13.735 13.9089 11.8013 12.0012 13.9089 14.0395 12.0012 12.1552 14.0395 14.1251 12.1552 12.2598 14.1251 14.1695 12.2598 12.3071 14.1695 14.1836 12.3071 12.3196 14.1836 14.1879 12.3196 12.319 2.23824 2.562 1.45378 1.77414 12.0012 12.1552 10.1911 10.3753 12.1552 12.2598 10.3753 10.4702 12.2598 12.3071 10.4702 10.5303 12.3071 12.3196 10.5303 10.5437 12.3196 12.319 10.5437 10.5319 2.08567 2.38985 1.3488 1.65984 5.11153 5.79891 5.20318 4.76234 5.79891 6.21922 4.76234 5.14836 6.21922 6.60008 5.14836 5.5376 6.60008 7.01188 5.5376 5.9616 10.3753 10.4702 8.57366 8.75778 10.4702 10.5303 8.75778 8.85472 10.5303 10.5437 8.85472 8.87338 10.5437 10.5319 8.87338 8.84361 0 -0.363095 0 -0.231683 -0.363095 -1.55813 -0.231683 -0.199161 -1.55813 -0.272274 -0.199161 -0.406711 5.5376 5.9616 4.47076 4.83466 5.8654 5.62052 4.92011 4.8633 5.62052 6.29307 4.8633 4.94487 8.85472 8.87338 7.28961 7.3174 8.87338 8.84361 7.3174 7.24367 0 -0.231683 0 -0.0287932 -0.231683 -0.199161 -0.0287932 -0.0944698 -0.199161 -0.406711 -0.0944698 -0.121078 -0.406711 -0.228158 -0.121078 -0.156482 -0.228158 -0.158572 -0.156482 -0.105029 1.86 2.16836 1.13599 1.432 4.92869 4.92011 3.50548 3.61182 4.92011 4.8633 3.61182 3.64711 4.8633 4.94487 3.64711 3.65614 4.94487 5.02598 3.65614 3.64325 0 -0.0287932 0 -0.0104442 -0.0287932 -0.0944698 -0.0104442 -0.0217515 -0.0944698 -0.121078 -0.0217515 -0.0533579 -0.121078 -0.156482 -0.0533579 -0.0737614 -0.156482 -0.105029 -0.0737614 -0.0899496 -0.105029 -0.0740453 -0.0899496 -0.094374 -0.0740453 -0.0440732 -0.094374 -0.111325 1.71822 2.01034 0.977031 1.22469 3.50548 3.61182 2.31343 2.30019 3.61182 3.64711 2.30019 2.37659 3.64711 3.65614 2.37659 2.39779 3.65614 3.64325 2.39779 2.39111 3.64325 3.60231 2.39111 2.34776 3.60231 3.26928 2.34776 2.46452 0 -0.0104442 0 -0.00111166 -0.0104442 -0.0217515 -0.00111166 -0.00668832 -0.0217515 -0.0533579 -0.00668832 -0.0180539 -0.0533579 -0.0737614 -0.0180539 -0.0342602 -0.0737614 -0.0899496 -0.0342602 -0.047824 -0.0899496 -0.094374 -0.047824 -0.0624175 -0.094374 -0.111325 -0.0624175 -0.0897585 -0.111325 -0.173272 -0.0897585 -0.156995 -0.173272 -0.499104 -0.156995 -0.179469 1.22469 1.47734 0.505482 0.691164 1.47734 1.71845 0.691164 0.836986 1.71845 1.93275 0.836986 0.941027 2.24808 2.31343 1.0087 1.1202 2.31343 2.30019 1.1202 1.14694 2.30019 2.37659 1.14694 1.1643 2.37659 2.39779 1.1643 1.1836 2.39779 2.39111 1.1836 1.18477 2.39111 2.34776 1.18477 1.20403 2.34776 2.46452 1.20403 1.19845 2.46452 2.41086 1.19845 1.16771 2.41086 2.37368 1.16771 1.04627 0 -0.00111166 0 1.82849e-11 -0.00111166 -0.00668832 1.82849e-11 4.0566e-11 -0.00668832 -0.0180539 4.0566e-11 5.99055e-11 -0.0180539 -0.0342602 5.99055e-11 7.14465e-11 -0.0342602 -0.047824 7.14465e-11 7.332e-11 -0.047824 -0.0624175 7.332e-11 6.70223e-11 -0.0624175 -0.0897585 6.70223e-11 5.32295e-11 -0.0897585 -0.156995 5.32295e-11 2.94921e-11 -0.156995 -0.179469 2.94921e-11 1.16362e-11 -0.179469 -0.23859 1.16362e-11 7.6482e-13 -0.23859 -0.269005 7.6482e-13 -4.07248e-13 0.691164 0.836986 -2.41858e-13 -3.72396e-13 0.836986 0.941027 -3.72396e-13 -4.61165e-13 0.941027 0.988894 -4.61165e-13 -7.95521e-13 0.988894 0.97207 -7.95521e-13 -1.5655e-12 1.0087 1.1202 -6.84158e-11 -2.14451e-10 1.1202 1.14694 -2.14451e-10 -5.19764e-10 1.14694 1.1643 -5.19764e-10 -6.15427e-11 1.1643 1.1836 -6.15427e-11 1.67795e-10 1.1836 1.18477 1.67795e-10 8.26548e-11 1.18477 1.20403 8.26548e-11 1.20419e-10 1.20403 1.19845 1.20419e-10 -1.40902e-10 1.19845 1.16771 -1.40902e-10 -1.18617e-09 1.16771 1.04627 -1.18617e-09 -9.62023e-10 1.04627 1.11402 -9.62023e-10 4.20722e-10 1.90571 2.1154 5.27995e-12 4.84404e-12 0 1.82849e-11 0 0.00111166 1.82849e-11 4.0566e-11 0.00111166 0.00668832 4.0566e-11 5.99055e-11 0.00668832 0.0180539 5.99055e-11 7.14465e-11 0.0180539 0.0342602 7.14465e-11 7.332e-11 0.0342602 0.047824 7.332e-11 6.70223e-11 0.047824 0.0624175 6.70223e-11 5.32295e-11 0.0624175 0.0897585 5.32295e-11 2.94921e-11 0.0897585 0.156995 2.94921e-11 1.16362e-11 0.156995 0.179469 1.16362e-11 7.6482e-13 0.179469 0.23859 7.6482e-13 -4.07248e-13 0.23859 0.269005 -2.41858e-13 -3.72396e-13 -0.691164 -0.836986 -3.72396e-13 -4.61165e-13 -0.836986 -0.941027 -4.61165e-13 -7.95521e-13 -0.941027 -0.988894 -7.95521e-13 -1.5655e-12 -0.988894 -0.97207 -6.84158e-11 -2.14451e-10 -1.0087 -1.1202 -2.14451e-10 -5.19764e-10 -1.1202 -1.14694 -5.19764e-10 -6.15427e-11 -1.14694 -1.1643 -6.15427e-11 1.67795e-10 -1.1643 -1.1836 1.67795e-10 8.26548e-11 -1.1836 -1.18477 8.26548e-11 1.20419e-10 -1.18477 -1.20403 1.20419e-10 -1.40902e-10 -1.20403 -1.19845 -1.40902e-10 -1.18617e-09 -1.19845 -1.16771 -1.18617e-09 -9.62023e-10 -1.16771 -1.04627 -9.62023e-10 4.20722e-10 -1.04627 -1.11402 5.27995e-12 4.84404e-12 -1.90571 -2.1154 0 0.00111166 0 0.0104442 0.00111166 0.00668832 0.0104442 0.0217515 0.00668832 0.0180539 0.0217515 0.0533579 0.0180539 0.0342602 0.0533579 0.0737614 0.0342602 0.047824 0.0737614 0.0899496 0.047824 0.0624175 0.0899496 0.094374 0.0624175 0.0897585 0.094374 0.111325 0.0897585 0.156995 0.111325 0.173272 0.156995 0.179469 0.173272 0.499104 -0.505482 -0.691164 -1.22469 -1.47734 -0.691164 -0.836986 -1.47734 -1.71845 -0.836986 -0.941027 -1.71845 -1.93275 -1.0087 -1.1202 -2.24808 -2.31343 -1.1202 -1.14694 -2.31343 -2.30019 -1.14694 -1.1643 -2.30019 -2.37659 -1.1643 -1.1836 -2.37659 -2.39779 -1.1836 -1.18477 -2.39779 -2.39111 -1.18477 -1.20403 -2.39111 -2.34776 -1.20403 -1.19845 -2.34776 -2.46452 -1.19845 -1.16771 -2.46452 -2.41086 -1.16771 -1.04627 -2.41086 -2.37368 0 0.0104442 0 0.0287932 0.0104442 0.0217515 0.0287932 0.0944698 0.0217515 0.0533579 0.0944698 0.121078 0.0533579 0.0737614 0.121078 0.156482 0.0737614 0.0899496 0.156482 0.105029 0.0899496 0.094374 0.105029 0.0740453 0.094374 0.111325 0.0740453 0.0440732 -0.977031 -1.22469 -1.71822 -2.01034 -2.31343 -2.30019 -3.50548 -3.61182 -2.30019 -2.37659 -3.61182 -3.64711 -2.37659 -2.39779 -3.64711 -3.65614 -2.39779 -2.39111 -3.65614 -3.64325 -2.39111 -2.34776 -3.64325 -3.60231 -2.34776 -2.46452 -3.60231 -3.26928 0 0.0287932 0 0.231683 0.0287932 0.0944698 0.231683 0.199161 0.0944698 0.121078 0.199161 0.406711 0.121078 0.156482 0.406711 0.228158 0.156482 0.105029 0.228158 0.158572 -1.13599 -1.432 -1.86 -2.16836 -3.50548 -3.61182 -4.92869 -4.92011 -3.61182 -3.64711 -4.92011 -4.8633 -3.64711 -3.65614 -4.8633 -4.94487 -3.65614 -3.64325 -4.94487 -5.02598 0 0.231683 0 0.363095 0.231683 0.199161 0.363095 1.55813 0.199161 0.406711 1.55813 0.272274 -4.47076 -4.83466 -5.5376 -5.9616 -4.92011 -4.8633 -5.8654 -5.62052 -4.8633 -4.94487 -5.62052 -6.29307 -7.28961 -7.3174 -8.85472 -8.87338 -7.3174 -7.24367 -8.87338 -8.84361 -1.3488 -1.65984 -2.08567 -2.38985 -5.20318 -4.76234 -5.11153 -5.79891 -4.76234 -5.14836 -5.79891 -6.21922 -5.14836 -5.5376 -6.21922 -6.60008 -5.5376 -5.9616 -6.60008 -7.01188 -8.57366 -8.75778 -10.3753 -10.4702 -8.75778 -8.85472 -10.4702 -10.5303 -8.85472 -8.87338 -10.5303 -10.5437 -8.87338 -8.84361 -10.5437 -10.5319 -1.45378 -1.77414 -2.23824 -2.562 -10.1911 -10.3753 -12.0012 -12.1552 -10.3753 -10.4702 -12.1552 -12.2598 -10.4702 -10.5303 -12.2598 -12.3071 -10.5303 -10.5437 -12.3071 -12.3196 -10.5437 -10.5319 -12.3196 -12.319 -1.0454 -1.46082 -1.64508 -2.17239 -1.46082 -1.86537 -2.17239 -2.66336 -1.86537 -2.23824 -2.66336 -3.11167 -2.23824 -2.562 -3.11167 -3.5123 -11.5433 -11.8013 -13.5188 -13.735 -11.8013 -12.0012 -13.735 -13.9089 -12.0012 -12.1552 -13.9089 -14.0395 -12.1552 -12.2598 -14.0395 -14.1251 -12.2598 -12.3071 -14.1251 -14.1695 -12.3071 -12.3196 -14.1695 -14.1836 -12.3196 -12.319 -14.1836 -14.1879 0 -0.529581 0 -0.774782 -0.529581 -1.08531 -0.774782 -1.59486 -1.08531 -1.64508 -1.59486 -2.3224 -1.64508 -2.17239 -2.3224 -2.97097 -2.17239 -2.66336 -2.97097 -3.5546 -2.66336 -3.11167 -3.5546 -4.08752 -3.11167 -3.5123 -4.08752 -4.58917 -10.6704 -11.0277 -12.2889 -12.7303 -11.0277 -11.3516 -12.7303 -13.1233 -12.9446 -13.2612 -15.0166 -15.3315 -13.2612 -13.5188 -15.3315 -15.5839 -13.5188 -13.735 -15.5839 -15.7738 -13.735 -13.9089 -15.7738 -15.9159 -13.9089 -14.0395 -15.9159 -16.014 -14.0395 -14.1251 -16.014 -16.0734 -14.1251 -14.1695 -16.0734 -16.1018 -14.1695 -14.1836 -16.1018 -16.1107 -14.1836 -14.1879 -16.1107 -16.1134 0 -0.774782 0 -1.3251 -0.774782 -1.59486 -1.3251 -2.3356 -1.59486 -2.3224 -2.3356 -3.18371 -2.3224 -2.97097 -3.18371 -3.91566 -2.97097 -3.5546 -3.91566 -4.56051 -3.5546 -4.08752 -4.56051 -5.14842 -4.08752 -4.58917 -5.14842 -5.70696 -4.58917 -5.07882 -5.70696 -6.25157 -5.07882 -5.562 -6.25157 -6.78833 -5.562 -6.04499 -6.78833 -7.3194 -6.04499 -6.52825 -7.3194 -7.84774 -6.52825 -7.0103 -7.84774 -8.37484 -7.0103 -7.49082 -8.37484 -8.90302 -7.49082 -7.97402 -8.90302 -9.42953 -7.97402 -8.45985 -9.42953 -9.94152 -8.45985 -8.94571 -9.94152 -10.4323 -8.94571 -9.43679 -10.4323 -10.9093 -9.43679 -9.92883 -10.9093 -11.3826 -9.92883 -10.4157 -11.3826 -11.8605 -10.4157 -10.8996 -11.8605 -12.354 -10.8996 -11.376 -12.354 -12.8689 -11.376 -11.8359 -12.8689 -13.4156 -11.8359 -12.2889 -13.4156 -13.9988 -12.2889 -12.7303 -13.9988 -14.5662 -12.7303 -13.1233 -14.5662 -15.0034 -14.2519 -14.6473 -16.5712 -16.9535 -14.6473 -15.0166 -16.9535 -17.271 -15.0166 -15.3315 -17.271 -17.5413 -15.3315 -15.5839 -17.5413 -17.7644 -15.5839 -15.7738 -17.7644 -17.9254 -15.7738 -15.9159 -17.9254 -18.0256 -15.9159 -16.014 -18.0256 -18.0765 -16.014 -16.0734 -18.0765 -18.0894 -16.0734 -16.1018 -18.0894 -18.0793 -16.1018 -16.1107 -18.0793 -18.0651 -16.1107 -16.1134 -18.0651 -18.0601 15.886 16.1347 14.7574 15.0025 5.562 5.80349 4.94944 5.17859 5.80349 6.04499 5.17859 5.40856 4.94944 5.17859 4.33562 4.55364 5.17859 5.40856 4.55364 4.77197 6.04499 6.28662 5.40856 5.63875 6.28662 6.52825 5.63875 5.86903 5.40856 5.63875 4.77197 4.99062 5.63875 5.86903 4.99062 5.20964 6.52825 6.76928 5.86903 6.0993 6.76928 7.0103 6.0993 6.32919 5.86903 6.0993 5.20964 5.42905 6.0993 6.32919 5.42905 5.64891 7.0103 7.25056 6.32919 6.5582 7.25056 7.49082 6.5582 6.78623 6.32919 6.5582 5.64891 5.8689 6.5582 6.78623 5.8689 6.08687 7.49082 7.73242 6.78623 7.01522 7.73242 7.97402 7.01522 7.24585 7.97402 8.21693 7.24585 7.48013 8.21693 8.45985 7.48013 7.71824 8.45985 8.70278 7.71824 7.95745 8.70278 8.94571 7.95745 8.20239 8.94571 9.19125 8.20239 8.45102 9.19125 9.43679 8.45102 8.70132 9.43679 9.68281 8.70132 8.95196 9.68281 9.92883 8.95196 9.20232 9.92883 10.1723 9.20232 9.45111 10.1723 10.4157 9.45111 9.69509 10.4157 10.6577 9.69509 9.93573 10.6577 10.8996 9.93573 10.1733 10.8996 11.1378 10.1733 10.4067 11.1378 11.376 10.4067 10.6312 11.376 11.6059 10.6312 10.847 11.6059 11.8359 10.847 11.0537 10.847 11.0537 10.1046 10.305 14.2519 14.4496 13.3015 13.2552 14.4496 14.6473 13.2552 13.5641 0 0.26479 0 0.203736 0.26479 0.529581 0.203736 0.416497 0.529581 0.807447 0.416497 0.636567 0.807447 1.08531 0.636567 0.868277 0.636567 0.868277 0.453826 0.64457 11.3516 11.4874 10.4378 10.5503 11.4874 11.6113 10.5503 10.6656 12.9446 13.1029 11.9356 12.2042 13.1029 13.2612 12.2042 12.2393 12.2042 12.2393 11.2206 11.2146 0 -0.0828119 0 -0.181891 1.0454 1.25311 0.748564 0.932654 1.25311 1.46082 0.932654 1.11855 3.90447 4.08653 3.45843 3.42708 4.08653 4.28302 3.42708 3.62718 8.42268 8.81075 8.22954 7.63875 8.22954 7.63875 7.32985 7.82779 9.96956 10.1042 9.02451 9.16899 10.1042 10.2383 9.16899 9.30824 9.85038 9.9843 8.93153 9.06582 11.4155 11.5433 10.4743 10.5779 -0.181962 0.180531 -1.55813 -0.915201 0.180531 -0.000128516 -0.915201 -0.272274 1.29124 1.45378 0.921218 1.08238 2.32817 2.48196 1.96794 2.12079 3.64256 3.79623 3.19455 3.36607 3.79623 4.20089 3.36607 3.42319 7.09699 6.96423 5.65367 5.8654 6.6887 7.22968 5.62052 5.9568 7.22968 7.12457 5.9568 6.29307 10.1117 10.1911 9.2192 9.42167 -0.299808 -0.0144786 -0.228158 -0.193365 -0.0144786 0.0877699 -0.193365 -0.158572 1.19237 1.3488 0.829061 0.984701 2.22264 2.37688 1.86 2.01418 2.37688 2.53921 2.01418 2.16836 3.68035 5.20318 3.52135 3.07166 5.20318 4.98276 3.07166 3.81566 4.98276 4.76234 3.81566 4.0729 5.9616 6.16582 5.39813 5.57923 5.39813 5.57923 4.83466 4.97955 5.6507 5.64811 4.97328 4.9705 5.80805 5.83653 5.02598 5.09299 7.23683 7.37261 6.32185 6.46186 8.57366 8.66572 7.69388 7.85279 8.66572 8.75778 7.85279 7.94523 -0.0235475 0.0195992 -0.0740453 -0.0590592 0.0195992 0.0187855 -0.0590592 -0.0440732 1.08857 1.24354 0.726392 0.883294 2.10129 2.25464 1.71822 1.86428 2.25464 2.41137 1.86428 2.01034 2.41137 2.57158 2.01034 2.16148 4.19222 4.47076 3.51841 3.89283 4.98922 4.92869 4.00673 4.21708 4.00673 4.21708 3.63496 3.50548 4.56529 4.44651 3.26928 3.71124 5.96571 6.10219 5.0608 5.19809 5.74494 5.88283 4.83892 4.97308 7.28961 7.3035 6.55781 6.58012 7.3035 7.3174 6.58012 6.58363 -0.106401 -0.0915404 -0.173272 -0.336188 -0.0915404 0.0299477 -0.336188 -0.499104 0.0299477 -0.01897 -0.499104 -0.345782 0.984229 1.13599 0.625594 0.780669 2.1701 2.30538 1.71845 1.8256 2.30538 2.43761 1.8256 1.93275 3.63972 3.6351 2.95987 2.95603 2.95987 2.95603 2.26862 2.27559 3.07911 3.16071 2.41086 2.39227 3.16071 3.16217 2.39227 2.37368 4.46337 4.60333 3.53439 3.66735 5.79794 5.75442 4.95062 4.93659 -0.128025 -0.0663386 -0.269005 -0.309379 0.850392 0.977031 0.508841 0.632677 2.2949 2.24808 1.46083 1.62839 1.46083 1.62839 0.967548 1.0087 1.54864 1.78176 1.11402 1.13458 3.15956 3.28184 2.26643 2.38268 -0.123597 -0.148994 1.72214e-11 -1.15499e-11 0.97207 0.970477 0.486035 0.443548 0.486035 0.443548 -1.5655e-12 -2.03779e-12 0.528564 0.530144 -1.17429e-10 -8.06785e-11 1.72214e-11 -1.15499e-11 0.123597 0.148994 -1.5655e-12 -2.03779e-12 -0.486035 -0.443548 -0.486035 -0.443548 -0.97207 -0.970477 -1.17429e-10 -8.06785e-11 -0.528564 -0.530144 0.269005 0.309379 0.128025 0.0663386 -0.508841 -0.632677 -0.850392 -0.977031 -0.967548 -1.0087 -1.46083 -1.62839 -1.46083 -1.62839 -2.2949 -2.24808 -1.11402 -1.13458 -1.54864 -1.78176 -2.26643 -2.38268 -3.15956 -3.28184 0.173272 0.336188 0.106401 0.0915404 0.336188 0.499104 0.0915404 -0.0299477 0.499104 0.345782 -0.0299477 0.01897 -0.625594 -0.780669 -0.984229 -1.13599 -1.71845 -1.8256 -2.1701 -2.30538 -1.8256 -1.93275 -2.30538 -2.43761 -2.26862 -2.27559 -2.95987 -2.95603 -2.95987 -2.95603 -3.63972 -3.6351 -2.41086 -2.39227 -3.07911 -3.16071 -2.39227 -2.37368 -3.16071 -3.16217 -3.53439 -3.66735 -4.46337 -4.60333 -4.95062 -4.93659 -5.79794 -5.75442 0.0740453 0.0590592 0.0235475 -0.0195992 0.0590592 0.0440732 -0.0195992 -0.0187855 -0.726392 -0.883294 -1.08857 -1.24354 -1.71822 -1.86428 -2.10129 -2.25464 -1.86428 -2.01034 -2.25464 -2.41137 -2.01034 -2.16148 -2.41137 -2.57158 -3.51841 -3.89283 -4.19222 -4.47076 -3.63496 -3.50548 -4.00673 -4.21708 -4.00673 -4.21708 -4.98922 -4.92869 -3.26928 -3.71124 -4.56529 -4.44651 -5.0608 -5.19809 -5.96571 -6.10219 -4.83892 -4.97308 -5.74494 -5.88283 -6.55781 -6.58012 -7.28961 -7.3035 -6.58012 -6.58363 -7.3035 -7.3174 0.228158 0.193365 0.299808 0.0144786 0.193365 0.158572 0.0144786 -0.0877699 -0.829061 -0.984701 -1.19237 -1.3488 -1.86 -2.01418 -2.22264 -2.37688 -2.01418 -2.16836 -2.37688 -2.53921 -3.52135 -3.07166 -3.68035 -5.20318 -3.07166 -3.81566 -5.20318 -4.98276 -3.81566 -4.0729 -4.98276 -4.76234 -4.83466 -4.97955 -5.39813 -5.57923 -5.39813 -5.57923 -5.9616 -6.16582 -4.97328 -4.9705 -5.6507 -5.64811 -5.02598 -5.09299 -5.80805 -5.83653 -6.32185 -6.46186 -7.23683 -7.37261 -7.69388 -7.85279 -8.57366 -8.66572 -7.85279 -7.94523 -8.66572 -8.75778 1.55813 0.915201 0.181962 -0.180531 0.915201 0.272274 -0.180531 0.000128516 -0.921218 -1.08238 -1.29124 -1.45378 -1.96794 -2.12079 -2.32817 -2.48196 -3.19455 -3.36607 -3.64256 -3.79623 -3.36607 -3.42319 -3.79623 -4.20089 -5.65367 -5.8654 -7.09699 -6.96423 -5.62052 -5.9568 -6.6887 -7.22968 -5.9568 -6.29307 -7.22968 -7.12457 -9.2192 -9.42167 -10.1117 -10.1911 0 0.181891 0 0.0828119 -0.748564 -0.932654 -1.0454 -1.25311 -0.932654 -1.11855 -1.25311 -1.46082 -3.45843 -3.42708 -3.90447 -4.08653 -3.42708 -3.62718 -4.08653 -4.28302 -7.32985 -7.82779 -8.22954 -7.63875 -8.22954 -7.63875 -8.42268 -8.81075 -9.02451 -9.16899 -9.96956 -10.1042 -9.16899 -9.30824 -10.1042 -10.2383 -8.93153 -9.06582 -9.85038 -9.9843 -10.4743 -10.5779 -11.4155 -11.5433 0 -0.203736 0 -0.26479 -0.203736 -0.416497 -0.26479 -0.529581 -0.453826 -0.64457 -0.636567 -0.868277 -0.416497 -0.636567 -0.529581 -0.807447 -0.636567 -0.868277 -0.807447 -1.08531 -10.4378 -10.5503 -11.3516 -11.4874 -10.5503 -10.6656 -11.4874 -11.6113 -11.2206 -11.2146 -12.2042 -12.2393 -11.9356 -12.2042 -12.9446 -13.1029 -12.2042 -12.2393 -13.1029 -13.2612 -4.33562 -4.55364 -4.94944 -5.17859 -4.55364 -4.77197 -5.17859 -5.40856 -4.94944 -5.17859 -5.562 -5.80349 -5.17859 -5.40856 -5.80349 -6.04499 -4.77197 -4.99062 -5.40856 -5.63875 -4.99062 -5.20964 -5.63875 -5.86903 -5.40856 -5.63875 -6.04499 -6.28662 -5.63875 -5.86903 -6.28662 -6.52825 -5.20964 -5.42905 -5.86903 -6.0993 -5.42905 -5.64891 -6.0993 -6.32919 -5.86903 -6.0993 -6.52825 -6.76928 -6.0993 -6.32919 -6.76928 -7.0103 -5.64891 -5.8689 -6.32919 -6.5582 -5.8689 -6.08687 -6.5582 -6.78623 -6.32919 -6.5582 -7.0103 -7.25056 -6.5582 -6.78623 -7.25056 -7.49082 -6.78623 -7.01522 -7.49082 -7.73242 -7.01522 -7.24585 -7.73242 -7.97402 -7.24585 -7.48013 -7.97402 -8.21693 -7.48013 -7.71824 -8.21693 -8.45985 -7.71824 -7.95745 -8.45985 -8.70278 -7.95745 -8.20239 -8.70278 -8.94571 -8.20239 -8.45102 -8.94571 -9.19125 -8.45102 -8.70132 -9.19125 -9.43679 -8.70132 -8.95196 -9.43679 -9.68281 -8.95196 -9.20232 -9.68281 -9.92883 -9.20232 -9.45111 -9.92883 -10.1723 -9.45111 -9.69509 -10.1723 -10.4157 -9.69509 -9.93573 -10.4157 -10.6577 -9.93573 -10.1733 -10.6577 -10.8996 -10.1733 -10.4067 -10.8996 -11.1378 -10.4067 -10.6312 -11.1378 -11.376 -10.1046 -10.305 -10.847 -11.0537 -10.6312 -10.847 -11.376 -11.6059 -10.847 -11.0537 -11.6059 -11.8359 -13.3015 -13.2552 -14.2519 -14.4496 -13.2552 -13.5641 -14.4496 -14.6473 -14.7574 -15.0025 -15.886 -16.1347 15.0034 15.1404 14.0633 14.2139 14.0633 14.2139 13.1233 13.3008 16.1347 16.3594 15.0025 15.206 16.3594 16.5712 15.206 15.4115 15.206 15.4115 14.1139 14.2519 5.07882 5.32041 4.49665 4.72238 5.32041 5.562 4.72238 4.94944 4.49665 4.72238 3.91043 4.11952 4.72238 4.94944 4.11952 4.33562 11.8359 12.0624 11.0537 11.2623 12.0624 12.2889 11.2623 11.4797 11.0537 11.2623 10.305 10.4918 11.2623 11.4797 10.4918 10.6704 13.4485 13.5833 12.