# vtk DataFile Version 3.0
#This file was generated by the deal.II library on 2015/9/2 at 7:54:51
ASCII
DATASET UNSTRUCTURED_GRID

POINTS 41912 double
0 0 0
0.05 0 0
0 0.05 0
0.05 0.05 0
0.05 0 0
0.1 0 0
0.05 0.05 0
0.1 0.05 0
0.1 0 0
0.15 0 0
0.1 0.05 0
0.15 0.05 0
0.15 0 0
0.2 0 0
0.15 0.05 0
0.2 0.05 0
0.2 0 0
0.25 0 0
0.2 0.05 0
0.25 0.05 0
0.25 0 0
0.3 0 0
0.25 0.05 0
0.3 0.05 0
0.3 0 0
0.35 0 0
0.3 0.05 0
0.35 0.05 0
0.35 0 0
0.4 0 0
0.35 0.05 0
0.4 0.05 0
0.4 0 0
0.45 0 0
0.4 0.05 0
0.45 0.05 0
0.45 0 0
0.5 0 0
0.45 0.05 0
0.5 0.05 0
0.5 0 0
0.55 0 0
0.5 0.05 0
0.55 0.05 0
0.55 0 0
0.6 0 0
0.55 0.05 0
0.6 0.05 0
0.6 0 0
0.65 0 0
0.6 0.05 0
0.65 0.05 0
0.65 0 0
0.7 0 0
0.65 0.05 0
0.7 0.05 0
0.7 0 0
0.75 0 0
0.7 0.05 0
0.75 0.05 0
0.75 0 0
0.8 0 0
0.75 0.05 0
0.8 0.05 0
0.8 0 0
0.85 0 0
0.8 0.05 0
0.85 0.05 0
0.85 0 0
0.9 0 0
0.85 0.05 0
0.9 0.05 0
0.9 0 0
0.95 0 0
0.9 0.05 0
0.95 0.05 0
0.95 0 0
1 0 0
0.95 0.05 0
1 0.05 0
1 0 0
1.05 0 0
1 0.05 0
1.05 0.05 0
1.05 0 0
1.1 0 0
1.05 0.05 0
1.1 0.05 0
1.1 0 0
1.15 0 0
1.1 0.05 0
1.15 0.05 0
1.15 0 0
1.2 0 0
1.15 0.05 0
1.2 0.05 0
1.2 0 0
1.25 0 0
1.2 0.05 0
1.25 0.05 0
1.45 0 0
1.5 0 0
1.45 0.05 0
1.5 0.05 0
1.5 0 0
1.55 0 0
1.5 0.05 0
1.55 0.05 0
1.55 0 0
1.6 0 0
1.55 0.05 0
1.6 0.05 0
1.6 0 0
1.65 0 0
1.6 0.05 0
1.65 0.05 0
1.65 0 0
1.7 0 0
1.65 0.05 0
1.7 0.05 0
1.7 0 0
1.75 0 0
1.7 0.05 0
1.75 0.05 0
1.75 0 0
1.8 0 0
1.75 0.05 0
1.8 0.05 0
1.8 0 0
1.85 0 0
1.8 0.05 0
1.85 0.05 0
1.85 0 0
1.9 0 0
1.85 0.05 0
1.9 0.05 0
1.9 0 0
1.95 0 0
1.9 0.05 0
1.95 0.05 0
1.95 0 0
2 0 0
1.95 0.05 0
2 0.05 0
0 0.05 0
0.05 0.05 0
0 0.1 0
0.05 0.1 0
0.05 0.05 0
0.1 0.05 0
0.05 0.1 0
0.1 0.1 0
0.1 0.05 0
0.15 0.05 0
0.1 0.1 0
0.15 0.1 0
0.15 0.05 0
0.2 0.05 0
0.15 0.1 0
0.2 0.1 0
0.2 0.05 0
0.25 0.05 0
0.2 0.1 0
0.25 0.1 0
0.25 0.05 0
0.3 0.05 0
0.25 0.1 0
0.3 0.1 0
0.3 0.05 0
0.35 0.05 0
0.3 0.1 0
0.35 0.1 0
1.15 0.05 0
1.2 0.05 0
1.15 0.1 0
1.2 0.1 0
1.2 0.05 0
1.25 0.05 0
1.2 0.1 0
1.25 0.1 0
1.55 0.05 0
1.6 0.05 0
1.55 0.1 0
1.6 0.1 0
1.6 0.05 0
1.65 0.05 0
1.6 0.1 0
1.65 0.1 0
1.65 0.05 0
1.7 0.05 0
1.65 0.1 0
1.7 0.1 0
1.7 0.05 0
1.75 0.05 0
1.7 0.1 0
1.75 0.1 0
1.75 0.05 0
1.8 0.05 0
1.75 0.1 0
1.8 0.1 0
1.8 0.05 0
1.85 0.05 0
1.8 0.1 0
1.85 0.1 0
1.85 0.05 0
1.9 0.05 0
1.85 0.1 0
1.9 0.1 0
1.9 0.05 0
1.95 0.05 0
1.9 0.1 0
1.95 0.1 0
1.95 0.05 0
2 0.05 0
1.95 0.1 0
2 0.1 0
0.15 0.1 0
0.2 0.1 0
0.15 0.15 0
0.2 0.15 0
0.2 0.1 0
0.25 0.1 0
0.2 0.15 0
0.25 0.15 0
0.25 0.1 0
0.3 0.1 0
0.25 0.15 0
0.3 0.15 0
0.3 0.1 0
0.35 0.1 0
0.3 0.15 0
0.35 0.15 0
1.65 0.1 0
1.7 0.1 0
1.65 0.15 0
1.7 0.15 0
1.7 0.1 0
1.75 0.1 0
1.7 0.15 0
1.75 0.15 0
1.75 0.1 0
1.8 0.1 0
1.75 0.15 0
1.8 0.15 0
1.8 0.1 0
1.85 0.1 0
1.8 0.15 0
1.85 0.15 0
1.85 0.1 0
1.9 0.1 0
1.85 0.15 0
1.9 0.15 0
1.9 0.1 0
1.95 0.1 0
1.9 0.15 0
1.95 0.15 0
1.95 0.1 0
2 0.1 0
1.95 0.15 0
2 0.15 0
0.3 0.15 0
0.35 0.15 0
0.3 0.2 0
0.35 0.2 0
1.75 0.15 0
1.8 0.15 0
1.75 0.2 0
1.8 0.2 0
1.8 0.15 0
1.85 0.15 0
1.8 0.2 0
1.85 0.2 0
1.85 0.15 0
1.9 0.15 0
1.85 0.2 0
1.9 0.2 0
1.9 0.15 0
1.95 0.15 0
1.9 0.2 0
1.95 0.2 0
1.95 0.15 0
2 0.15 0
1.95 0.2 0
2 0.2 0
0.4 0.2 0
0.45 0.2 0
0.4 0.25 0
0.45 0.25 0
0.8 0.2 0
0.85 0.2 0
0.8 0.25 0
0.85 0.25 0
0.85 0.2 0
0.9 0.2 0
0.85 0.25 0
0.9 0.25 0
0.9 0.2 0
0.95 0.2 0
0.9 0.25 0
0.95 0.25 0
0.95 0.2 0
1 0.2 0
0.95 0.25 0
1 0.25 0
1.8 0.2 0
1.85 0.2 0
1.8 0.25 0
1.85 0.25 0
1.85 0.2 0
1.9 0.2 0
1.85 0.25 0
1.9 0.25 0
1.9 0.2 0
1.95 0.2 0
1.9 0.25 0
1.95 0.25 0
1.95 0.2 0
2 0.2 0
1.95 0.25 0
2 0.25 0
0 0.25 0
0.05 0.25 0
0 0.3 0
0.05 0.3 0
0.05 0.25 0
0.1 0.25 0
0.05 0.3 0
0.1 0.3 0
0.1 0.25 0
0.15 0.25 0
0.1 0.3 0
0.15 0.3 0
0.95 0.25 0
1 0.25 0
0.95 0.3 0
1 0.3 0
1.25 0.25 0
1.3 0.25 0
1.25 0.3 0
1.3 0.3 0
1.3 0.25 0
1.35 0.25 0
1.3 0.3 0
1.35 0.3 0
1.9 0.25 0
1.95 0.25 0
1.9 0.3 0
1.95 0.3 0
1.95 0.25 0
2 0.25 0
1.95 0.3 0
2 0.3 0
0 0.3 0
0.05 0.3 0
0 0.35 0
0.05 0.35 0
0.05 0.3 0
0.1 0.3 0
0.05 0.35 0
0.1 0.35 0
0.1 0.3 0
0.15 0.3 0
0.1 0.35 0
0.15 0.35 0
0.15 0.3 0
0.2 0.3 0
0.15 0.35 0
0.2 0.35 0
0.2 0.3 0
0.25 0.3 0
0.2 0.35 0
0.25 0.35 0
0.6 0.3 0
0.65 0.3 0
0.6 0.35 0
0.65 0.35 0
1.2 0.3 0
1.25 0.3 0
1.2 0.35 0
1.25 0.35 0
1.25 0.3 0
1.3 0.3 0
1.25 0.35 0
1.3 0.35 0
1.3 0.3 0
1.35 0.3 0
1.3 0.35 0
1.35 0.35 0
1.35 0.3 0
1.4 0.3 0
1.35 0.35 0
1.4 0.35 0
0 0.35 0
0.05 0.35 0
0 0.4 0
0.05 0.4 0
0.05 0.35 0
0.1 0.35 0
0.05 0.4 0
0.1 0.4 0
0.1 0.35 0
0.15 0.35 0
0.1 0.4 0
0.15 0.4 0
0.15 0.35 0
0.2 0.35 0
0.15 0.4 0
0.2 0.4 0
0.2 0.35 0
0.25 0.35 0
0.2 0.4 0
0.25 0.4 0
0.25 0.35 0
0.3 0.35 0
0.25 0.4 0
0.3 0.4 0
0.3 0.35 0
0.35 0.35 0
0.3 0.4 0
0.35 0.4 0
0.7 0.35 0
0.75 0.35 0
0.7 0.4 0
0.75 0.4 0
1.2 0.35 0
1.25 0.35 0
1.2 0.4 0
1.25 0.4 0
1.25 0.35 0
1.3 0.35 0
1.25 0.4 0
1.3 0.4 0
1.3 0.35 0
1.35 0.35 0
1.3 0.4 0
1.35 0.4 0
1.35 0.35 0
1.4 0.35 0
1.35 0.4 0
1.4 0.4 0
1.4 0.35 0
1.45 0.35 0
1.4 0.4 0
1.45 0.4 0
1.45 0.35 0
1.5 0.35 0
1.45 0.4 0
1.5 0.4 0
0 0.4 0
0.05 0.4 0
0 0.45 0
0.05 0.45 0
0.05 0.4 0
0.1 0.4 0
0.05 0.45 0
0.1 0.45 0
0.1 0.4 0
0.15 0.4 0
0.1 0.45 0
0.15 0.45 0
0.15 0.4 0
0.2 0.4 0
0.15 0.45 0
0.2 0.45 0
0.2 0.4 0
0.25 0.4 0
0.2 0.45 0
0.25 0.45 0
0.25 0.4 0
0.3 0.4 0
0.25 0.45 0
0.3 0.45 0
0.3 0.4 0
0.35 0.4 0
0.3 0.45 0
0.35 0.45 0
0.35 0.4 0
0.4 0.4 0
0.35 0.45 0
0.4 0.45 0
0.4 0.4 0
0.45 0.4 0
0.4 0.45 0
0.45 0.45 0
0.75 0.4 0
0.8 0.4 0
0.75 0.45 0
0.8 0.45 0
0.8 0.4 0
0.85 0.4 0
0.8 0.45 0
0.85 0.45 0
0.85 0.4 0
0.9 0.4 0
0.85 0.45 0
0.9 0.45 0
1.15 0.4 0
1.2 0.4 0
1.15 0.45 0
1.2 0.45 0
1.2 0.4 0
1.25 0.4 0
1.2 0.45 0
1.25 0.45 0
1.25 0.4 0
1.3 0.4 0
1.25 0.45 0
1.3 0.45 0
1.3 0.4 0
1.35 0.4 0
1.3 0.45 0
1.35 0.45 0
1.35 0.4 0
1.4 0.4 0
1.35 0.45 0
1.4 0.45 0
1.4 0.4 0
1.45 0.4 0
1.4 0.45 0
1.45 0.45 0
1.45 0.4 0
1.5 0.4 0
1.45 0.45 0
1.5 0.45 0
1.5 0.4 0
1.55 0.4 0
1.5 0.45 0
1.55 0.45 0
1.55 0.4 0
1.6 0.4 0
1.55 0.45 0
1.6 0.45 0
0 0.45 0
0.05 0.45 0
0 0.5 0
0.05 0.5 0
0.05 0.45 0
0.1 0.45 0
0.05 0.5 0
0.1 0.5 0
0.1 0.45 0
0.15 0.45 0
0.1 0.5 0
0.15 0.5 0
0.15 0.45 0
0.2 0.45 0
0.15 0.5 0
0.2 0.5 0
0.2 0.45 0
0.25 0.45 0
0.2 0.5 0
0.25 0.5 0
0.25 0.45 0
0.3 0.45 0
0.25 0.5 0
0.3 0.5 0
0.3 0.45 0
0.35 0.45 0
0.3 0.5 0
0.35 0.5 0
0.35 0.45 0
0.4 0.45 0
0.35 0.5 0
0.4 0.5 0
0.4 0.45 0
0.45 0.45 0
0.4 0.5 0
0.45 0.5 0
0.45 0.45 0
0.5 0.45 0
0.45 0.5 0
0.5 0.5 0
0.5 0.45 0
0.55 0.45 0
0.5 0.5 0
0.55 0.5 0
0.8 0.45 0
0.85 0.45 0
0.8 0.5 0
0.85 0.5 0
0.85 0.45 0
0.9 0.45 0
0.85 0.5 0
0.9 0.5 0
0.9 0.45 0
0.95 0.45 0
0.9 0.5 0
0.95 0.5 0
0.95 0.45 0
1 0.45 0
0.95 0.5 0
1 0.5 0
1.15 0.45 0
1.2 0.45 0
1.15 0.5 0
1.2 0.5 0
1.2 0.45 0
1.25 0.45 0
1.2 0.5 0
1.25 0.5 0
1.25 0.45 0
1.3 0.45 0
1.25 0.5 0
1.3 0.5 0
1.3 0.45 0
1.35 0.45 0
1.3 0.5 0
1.35 0.5 0
1.35 0.45 0
1.4 0.45 0
1.35 0.5 0
1.4 0.5 0
1.4 0.45 0
1.45 0.45 0
1.4 0.5 0
1.45 0.5 0
1.45 0.45 0
1.5 0.45 0
1.45 0.5 0
1.5 0.5 0
1.5 0.45 0
1.55 0.45 0
1.5 0.5 0
1.55 0.5 0
1.55 0.45 0
1.6 0.45 0
1.55 0.5 0
1.6 0.5 0
1.6 0.45 0
1.65 0.45 0
1.6 0.5 0
1.65 0.5 0
1.9 0.45 0
1.95 0.45 0
1.9 0.5 0
1.95 0.5 0
0 0.5 0
0.05 0.5 0
0 0.55 0
0.05 0.55 0
0.05 0.5 0
0.1 0.5 0
0.05 0.55 0
0.1 0.55 0
0.1 0.5 0
0.15 0.5 0
0.1 0.55 0
0.15 0.55 0
0.15 0.5 0
0.2 0.5 0
0.15 0.55 0
0.2 0.55 0
0.2 0.5 0
0.25 0.5 0
0.2 0.55 0
0.25 0.55 0
0.25 0.5 0
0.3 0.5 0
0.25 0.55 0
0.3 0.55 0
0.3 0.5 0
0.35 0.5 0
0.3 0.55 0
0.35 0.55 0
0.35 0.5 0
0.4 0.5 0
0.35 0.55 0
0.4 0.55 0
0.4 0.5 0
0.45 0.5 0
0.4 0.55 0
0.45 0.55 0
0.45 0.5 0
0.5 0.5 0
0.45 0.55 0
0.5 0.55 0
0.5 0.5 0
0.55 0.5 0
0.5 0.55 0
0.55 0.55 0
0.8 0.5 0
0.85 0.5 0
0.8 0.55 0
0.85 0.55 0
0.85 0.5 0
0.9 0.5 0
0.85 0.55 0
0.9 0.55 0
0.9 0.5 0
0.95 0.5 0
0.9 0.55 0
0.95 0.55 0
0.95 0.5 0
1 0.5 0
0.95 0.55 0
1 0.55 0
1.15 0.5 0
1.2 0.5 0
1.15 0.55 0
1.2 0.55 0
1.2 0.5 0
1.25 0.5 0
1.2 0.55 0
1.25 0.55 0
1.25 0.5 0
1.3 0.5 0
1.25 0.55 0
1.3 0.55 0
1.3 0.5 0
1.35 0.5 0
1.3 0.55 0
1.35 0.55 0
1.35 0.5 0
1.4 0.5 0
1.35 0.55 0
1.4 0.55 0
1.4 0.5 0
1.45 0.5 0
1.4 0.55 0
1.45 0.55 0
1.45 0.5 0
1.5 0.5 0
1.45 0.55 0
1.5 0.55 0
1.5 0.5 0
1.55 0.5 0
1.5 0.55 0
1.55 0.55 0
1.55 0.5 0
1.6 0.5 0
1.55 0.55 0
1.6 0.55 0
1.6 0.5 0
1.65 0.5 0
1.6 0.55 0
1.65 0.55 0
1.9 0.5 0
1.95 0.5 0
1.9 0.55 0
1.95 0.55 0
0 0.55 0
0.05 0.55 0
0 0.6 0
0.05 0.6 0
0.05 0.55 0
0.1 0.55 0
0.05 0.6 0
0.1 0.6 0
0.1 0.55 0
0.15 0.55 0
0.1 0.6 0
0.15 0.6 0
0.15 0.55 0
0.2 0.55 0
0.15 0.6 0
0.2 0.6 0
0.2 0.55 0
0.25 0.55 0
0.2 0.6 0
0.25 0.6 0
0.25 0.55 0
0.3 0.55 0
0.25 0.6 0
0.3 0.6 0
0.3 0.55 0
0.35 0.55 0
0.3 0.6 0
0.35 0.6 0
0.35 0.55 0
0.4 0.55 0
0.35 0.6 0
0.4 0.6 0
0.4 0.55 0
0.45 0.55 0
0.4 0.6 0
0.45 0.6 0
0.75 0.55 0
0.8 0.55 0
0.75 0.6 0
0.8 0.6 0
0.8 0.55 0
0.85 0.55 0
0.8 0.6 0
0.85 0.6 0
0.85 0.55 0
0.9 0.55 0
0.85 0.6 0
0.9 0.6 0
1.15 0.55 0
1.2 0.55 0
1.15 0.6 0
1.2 0.6 0
1.2 0.55 0
1.25 0.55 0
1.2 0.6 0
1.25 0.6 0
1.25 0.55 0
1.3 0.55 0
1.25 0.6 0
1.3 0.6 0
1.3 0.55 0
1.35 0.55 0
1.3 0.6 0
1.35 0.6 0
1.35 0.55 0
1.4 0.55 0
1.35 0.6 0
1.4 0.6 0
1.4 0.55 0
1.45 0.55 0
1.4 0.6 0
1.45 0.6 0
1.45 0.55 0
1.5 0.55 0
1.45 0.6 0
1.5 0.6 0
1.5 0.55 0
1.55 0.55 0
1.5 0.6 0
1.55 0.6 0
1.55 0.55 0
1.6 0.55 0
1.55 0.6 0
1.6 0.6 0
0 0.6 0
0.05 0.6 0
0 0.65 0
0.05 0.65 0
0.05 0.6 0
0.1 0.6 0
0.05 0.65 0
0.1 0.65 0
0.1 0.6 0
0.15 0.6 0
0.1 0.65 0
0.15 0.65 0
0.15 0.6 0
0.2 0.6 0
0.15 0.65 0
0.2 0.65 0
0.2 0.6 0
0.25 0.6 0
0.2 0.65 0
0.25 0.65 0
0.25 0.6 0
0.3 0.6 0
0.25 0.65 0
0.3 0.65 0
0.3 0.6 0
0.35 0.6 0
0.3 0.65 0
0.35 0.65 0
0.7 0.6 0
0.75 0.6 0
0.7 0.65 0
0.75 0.65 0
1.2 0.6 0
1.25 0.6 0
1.2 0.65 0
1.25 0.65 0
1.25 0.6 0
1.3 0.6 0
1.25 0.65 0
1.3 0.65 0
1.3 0.6 0
1.35 0.6 0
1.3 0.65 0
1.35 0.65 0
1.35 0.6 0
1.4 0.6 0
1.35 0.65 0
1.4 0.65 0
1.4 0.6 0
1.45 0.6 0
1.4 0.65 0
1.45 0.65 0
1.45 0.6 0
1.5 0.6 0
1.45 0.65 0
1.5 0.65 0
0 0.65 0
0.05 0.65 0
0 0.7 0
0.05 0.7 0
0.05 0.65 0
0.1 0.65 0
0.05 0.7 0
0.1 0.7 0
0.1 0.65 0
0.15 0.65 0
0.1 0.7 0
0.15 0.7 0
0.15 0.65 0
0.2 0.65 0
0.15 0.7 0
0.2 0.7 0
0.2 0.65 0
0.25 0.65 0
0.2 0.7 0
0.25 0.7 0
0.6 0.65 0
0.65 0.65 0
0.6 0.7 0
0.65 0.7 0
1.2 0.65 0
1.25 0.65 0
1.2 0.7 0
1.25 0.7 0
1.25 0.65 0
1.3 0.65 0
1.25 0.7 0
1.3 0.7 0
1.3 0.65 0
1.35 0.65 0
1.3 0.7 0
1.35 0.7 0
[...]
POINT_DATA 41912
SCALARS x_displacement double 1
LOOKUP_TABLE default
0 1.32414 0 0.774661 1.32414 2.33382 0.774661 1.5946 2.33382 3.18135 1.5946 2.32205 3.18135 3.91291 2.32205 2.97051 3.91291 4.55741 2.97051 3.55403 4.55741 5.14492 3.55403 4.08679 5.14492 5.70307 4.08679 4.58818 5.70307 6.24759 4.58818 5.07755 6.24759 6.78486 5.07755 5.56051 6.78486 7.31719 5.56051 6.04337 7.31719 7.84752 6.04337 6.52657 7.84752 8.37736 6.52657 7.00865 8.37736 8.90815 7.00865 7.49019 8.90815 9.43366 7.49019 7.97602 9.43366 9.94223 7.97602 8.4623 9.94223 10.4326 8.4623 8.95061 10.4326 10.9152 8.95061 9.44339 10.9152 11.3957 9.44339 9.93658 11.3957 11.877 9.93658 10.4269 11.877 12.3694 10.4269 10.9122 12.3694 12.8837 10.9122 11.3925 12.8837 13.4336 11.3925 11.8559 13.4336 14.0215 11.8559 12.3111 14.0215 14.5942 12.3111 12.7543 14.5942 15.0375 12.7543 13.1476 16.5765 16.9657 14.2381 14.6622 16.9657 17.2934 14.6622 15.0412 17.2934 17.566 15.0412 15.3614 17.566 17.7913 15.3614 15.6162 17.7913 17.9563 15.6162 15.8085 17.9563 18.0603 15.8085 15.9484 18.0603 18.1123 15.9484 16.0451 18.1123 18.1252 16.0451 16.1035 18.1252 18.1149 16.1035 16.1313 18.1149 18.1006 16.1313 16.1398 18.1006 18.0956 16.1398 16.1424 0 0.774661 0 0.530382 0.774661 1.5946 0.530382 1.08667 1.5946 2.32205 1.08667 1.64673 2.32205 2.97051 1.64673 2.17424 2.97051 3.55403 2.17424 2.66534 3.55403 4.08679 2.66534 3.11376 4.08679 4.58818 3.11376 3.51433 12.3111 12.7543 10.6933 11.0486 12.7543 13.1476 11.0486 11.3701 15.0412 15.3614 12.9772 13.309 15.3614 15.6162 13.309 13.5713 15.6162 15.8085 13.5713 13.7711 15.8085 15.9484 13.7711 13.9382 15.9484 16.0451 13.9382 14.0653 16.0451 16.1035 14.0653 14.1491 16.1035 16.1313 14.1491 14.1923 16.1313 16.1398 14.1923 14.2059 16.1398 16.1424 14.2059 14.2101 1.64673 2.17424 1.04935 1.46503 2.17424 2.66534 1.46503 1.86984 2.66534 3.11376 1.86984 2.24302 3.11376 3.51433 2.24302 2.56726 13.5713 13.7711 11.578 11.8268 13.7711 13.9382 11.8268 12.0213 13.9382 14.0653 12.0213 12.1737 14.0653 14.1491 12.1737 12.2761 14.1491 14.1923 12.2761 12.3223 14.1923 14.2059 12.3223 12.3346 14.2059 14.2101 12.3346 12.3344 2.24302 2.56726 1.46084 1.78159 12.0213 12.1737 10.2 10.3809 12.1737 12.2761 10.3809 10.4771 12.2761 12.3223 10.4771 10.5379 12.3223 12.3346 10.5379 10.5521 12.3346 12.3344 10.5521 10.5411 2.09362 2.39884 1.35739 1.66816 5.15467 5.84498 5.24934 4.79349 5.84498 6.2548 4.79349 5.18843 6.2548 6.63813 5.18843 5.5519 6.63813 6.99774 5.5519 5.95752 10.3809 10.4771 8.57029 8.7569 10.4771 10.5379 8.7569 8.85703 10.5379 10.5521 8.85703 8.87721 10.5521 10.5411 8.87721 8.84845 0 -0.35723 0 -0.227436 -0.35723 -1.537 -0.227436 -0.193981 -1.537 -0.264856 -0.193981 -0.39703 5.5519 5.95752 4.48191 4.84865 5.92911 5.69784 4.93409 4.9089 5.69784 6.2579 4.9089 4.98508 8.85703 8.87721 7.29057 7.31927 8.87721 8.84845 7.31927 7.24644 0 -0.227436 0 -0.0271928 -0.227436 -0.193981 -0.0271928 -0.0908783 -0.193981 -0.39703 -0.0908783 -0.115818 -0.39703 -0.218176 -0.115818 -0.149295 -0.218176 -0.145295 -0.149295 -0.0974587 1.8652 2.17332 1.13955 1.43565 4.93291 4.93409 3.5196 3.62327 4.93409 4.9089 3.62327 3.67563 4.9089 4.98508 3.67563 3.69885 4.98508 5.0759 3.69885 3.69731 0 -0.0271928 0 -0.00943967 -0.0271928 -0.0908783 -0.00943967 -0.0197901 -0.0908783 -0.115818 -0.0197901 -0.0502367 -0.115818 -0.149295 -0.0502367 -0.0697843 -0.149295 -0.0974587 -0.0697843 -0.085316 -0.0974587 -0.0653597 -0.085316 -0.0899528 -0.0653597 -0.0366081 -0.0899528 -0.107703 1.72186 2.01386 0.978754 1.22581 3.5196 3.62327 2.30851 2.31542 3.62327 3.67563 2.31542 2.39633 3.67563 3.69885 2.39633 2.42253 3.69885 3.69731 2.42253 2.41081 3.69731 3.63756 2.41081 2.36283 3.63756 3.23584 2.36283 2.48132 0 -0.00943967 0 -0.000654293 -0.00943967 -0.0197901 -0.000654293 -0.00576253 -0.0197901 -0.0502367 -0.00576253 -0.0166576 -0.0502367 -0.0697843 -0.0166576 -0.0324299 -0.0697843 -0.085316 -0.0324299 -0.0458107 -0.085316 -0.0899528 -0.0458107 -0.0605 -0.0899528 -0.107703 -0.0605 -0.088141 -0.107703 -0.170018 -0.088141 -0.156821 -0.170018 -0.495294 -0.156821 -0.184423 1.22581 1.47761 0.505251 0.690429 1.47761 1.71699 0.690429 0.835225 1.71699 1.92767 0.835225 0.938477 2.23691 2.30851 1.00191 1.11898 2.30851 2.31542 1.11898 1.15186 2.31542 2.39633 1.15186 1.17439 2.39633 2.42253 1.17439 1.19365 2.42253 2.41081 1.19365 1.19376 2.41081 2.36283 1.19376 1.21332 2.36283 2.48132 1.21332 1.2085 2.48132 2.42654 1.2085 1.17649 2.42654 2.40365 1.17649 1.04575 0 -0.000654293 0 1.98715e-11 -0.000654293 -0.00576253 1.98715e-11 4.01142e-11 -0.00576253 -0.0166576 4.01142e-11 5.55119e-11 -0.0166576 -0.0324299 5.55119e-11 6.4715e-11 -0.0324299 -0.0458107 6.4715e-11 6.66016e-11 -0.0458107 -0.0605 6.66016e-11 6.19927e-11 -0.0605 -0.088141 6.19927e-11 5.33153e-11 -0.088141 -0.156821 5.33153e-11 5.10392e-11 -0.156821 -0.184423 5.10392e-11 4.51422e-11 -0.184423 -0.243513 4.51422e-11 3.3412e-11 -0.243513 -0.271487 3.3412e-11 1.87346e-11 0.690429 0.835225 -4.22086e-13 -4.80855e-13 0.835225 0.938477 -4.80855e-13 -3.36765e-14 0.938477 0.985581 -3.36765e-14 7.97579e-13 0.985581 0.967458 7.97579e-13 1.73408e-12 1.00191 1.11898 -1.34423e-10 8.37185e-11 1.11898 1.15186 8.37185e-11 2.30835e-10 1.15186 1.17439 2.30835e-10 9.94985e-11 1.17439 1.19365 9.94985e-11 -4.74119e-10 1.19365 1.19376 -4.74119e-10 -7.17178e-10 1.19376 1.21332 -7.17178e-10 -1.67448e-10 1.21332 1.2085 -1.67448e-10 1.23469e-09 1.2085 1.17649 1.23469e-09 1.90164e-09 1.17649 1.04575 1.90164e-09 2.16079e-09 1.04575 1.11245 2.16079e-09 9.21989e-10 1.90607 2.11569 2.24128e-12 1.23418e-12 0 1.98715e-11 0 0.000654293 1.98715e-11 4.01142e-11 0.000654293 0.00576253 4.01142e-11 5.55119e-11 0.00576253 0.0166576 5.55119e-11 6.4715e-11 0.0166576 0.0324299 6.4715e-11 6.66016e-11 0.0324299 0.0458107 6.66016e-11 6.19927e-11 0.0458107 0.0605 6.19927e-11 5.33153e-11 0.0605 0.088141 5.33153e-11 5.10392e-11 0.088141 0.156821 5.10392e-11 4.51422e-11 0.156821 0.184423 4.51422e-11 3.3412e-11 0.184423 0.243513 3.3412e-11 1.87346e-11 0.243513 0.271487 -4.22086e-13 -4.80855e-13 -0.690429 -0.835225 -4.80855e-13 -3.36765e-14 -0.835225 -0.938477 -3.36765e-14 7.97579e-13 -0.938477 -0.985581 7.97579e-13 1.73408e-12 -0.985581 -0.967458 -1.34423e-10 8.37185e-11 -1.00191 -1.11898 8.37185e-11 2.30835e-10 -1.11898 -1.15186 2.30835e-10 9.94985e-11 -1.15186 -1.17439 9.94985e-11 -4.74119e-10 -1.17439 -1.19365 -4.74119e-10 -7.17178e-10 -1.19365 -1.19376 -7.17178e-10 -1.67448e-10 -1.19376 -1.21332 -1.67448e-10 1.23469e-09 -1.21332 -1.2085 1.23469e-09 1.90164e-09 -1.2085 -1.17649 1.90164e-09 2.16079e-09 -1.17649 -1.04575 2.16079e-09 9.21989e-10 -1.04575 -1.11245 2.24128e-12 1.23418e-12 -1.90607 -2.11569 0 0.000654293 0 0.00943967 0.000654293 0.00576253 0.00943967 0.0197901 0.00576253 0.0166576 0.0197901 0.0502367 0.0166576 0.0324299 0.0502367 0.0697843 0.0324299 0.0458107 0.0697843 0.085316 0.0458107 0.0605 0.085316 0.0899528 0.0605 0.088141 0.0899528 0.107703 0.088141 0.156821 0.107703 0.170018 0.156821 0.184423 0.170018 0.495294 -0.505251 -0.690429 -1.22581 -1.47761 -0.690429 -0.835225 -1.47761 -1.71699 -0.835225 -0.938477 -1.71699 -1.92767 -1.00191 -1.11898 -2.23691 -2.30851 -1.11898 -1.15186 -2.30851 -2.31542 -1.15186 -1.17439 -2.31542 -2.39633 -1.17439 -1.19365 -2.39633 -2.42253 -1.19365 -1.19376 -2.42253 -2.41081 -1.19376 -1.21332 -2.41081 -2.36283 -1.21332 -1.2085 -2.36283 -2.48132 -1.2085 -1.17649 -2.48132 -2.42654 -1.17649 -1.04575 -2.42654 -2.40365 0 0.00943967 0 0.0271928 0.00943967 0.0197901 0.0271928 0.0908783 0.0197901 0.0502367 0.0908783 0.115818 0.0502367 0.0697843 0.115818 0.149295 0.0697843 0.085316 0.149295 0.0974587 0.085316 0.0899528 0.0974587 0.0653597 0.0899528 0.107703 0.0653597 0.0366081 -0.978754 -1.22581 -1.72186 -2.01386 -2.30851 -2.31542 -3.5196 -3.62327 -2.31542 -2.39633 -3.62327 -3.67563 -2.39633 -2.42253 -3.67563 -3.69885 -2.42253 -2.41081 -3.69885 -3.69731 -2.41081 -2.36283 -3.69731 -3.63756 -2.36283 -2.48132 -3.63756 -3.23584 0 0.0271928 0 0.227436 0.0271928 0.0908783 0.227436 0.193981 0.0908783 0.115818 0.193981 0.39703 0.115818 0.149295 0.39703 0.218176 0.149295 0.0974587 0.218176 0.145295 -1.13955 -1.43565 -1.8652 -2.17332 -3.5196 -3.62327 -4.93291 -4.93409 -3.62327 -3.67563 -4.93409 -4.9089 -3.67563 -3.69885 -4.9089 -4.98508 -3.69885 -3.69731 -4.98508 -5.0759 0 0.227436 0 0.35723 0.227436 0.193981 0.35723 1.537 0.193981 0.39703 1.537 0.264856 -4.48191 -4.84865 -5.5519 -5.95752 -4.93409 -4.9089 -5.92911 -5.69784 -4.9089 -4.98508 -5.69784 -6.2579 -7.29057 -7.31927 -8.85703 -8.87721 -7.31927 -7.24644 -8.87721 -8.84845 -1.35739 -1.66816 -2.09362 -2.39884 -5.24934 -4.79349 -5.15467 -5.84498 -4.79349 -5.18843 -5.84498 -6.2548 -5.18843 -5.5519 -6.2548 -6.63813 -5.5519 -5.95752 -6.63813 -6.99774 -8.57029 -8.7569 -10.3809 -10.4771 -8.7569 -8.85703 -10.4771 -10.5379 -8.85703 -8.87721 -10.5379 -10.5521 -8.87721 -8.84845 -10.5521 -10.5411 -1.46084 -1.78159 -2.24302 -2.56726 -10.2 -10.3809 -12.0213 -12.1737 -10.3809 -10.4771 -12.1737 -12.2761 -10.4771 -10.5379 -12.2761 -12.3223 -10.5379 -10.5521 -12.3223 -12.3346 -10.5521 -10.5411 -12.3346 -12.3344 -1.04935 -1.46503 -1.64673 -2.17424 -1.46503 -1.86984 -2.17424 -2.66534 -1.86984 -2.24302 -2.66534 -3.11376 -2.24302 -2.56726 -3.11376 -3.51433 -11.578 -11.8268 -13.5713 -13.7711 -11.8268 -12.0213 -13.7711 -13.9382 -12.0213 -12.1737 -13.9382 -14.0653 -12.1737 -12.2761 -14.0653 -14.1491 -12.2761 -12.3223 -14.1491 -14.1923 -12.3223 -12.3346 -14.1923 -14.2059 -12.3346 -12.3344 -14.2059 -14.2101 0 -0.530382 0 -0.774661 -0.530382 -1.08667 -0.774661 -1.5946 -1.08667 -1.64673 -1.5946 -2.32205 -1.64673 -2.17424 -2.32205 -2.97051 -2.17424 -2.66534 -2.97051 -3.55403 -2.66534 -3.11376 -3.55403 -4.08679 -3.11376 -3.51433 -4.08679 -4.58818 -10.6933 -11.0486 -12.3111 -12.7543 -11.0486 -11.3701 -12.7543 -13.1476 -12.9772 -13.309 -15.0412 -15.3614 -13.309 -13.5713 -15.3614 -15.6162 -13.5713 -13.7711 -15.6162 -15.8085 -13.7711 -13.9382 -15.8085 -15.9484 -13.9382 -14.0653 -15.9484 -16.0451 -14.0653 -14.1491 -16.0451 -16.1035 -14.1491 -14.1923 -16.1035 -16.1313 -14.1923 -14.2059 -16.1313 -16.1398 -14.2059 -14.2101 -16.1398 -16.1424 0 -0.774661 0 -1.32414 -0.774661 -1.5946 -1.32414 -2.33382 -1.5946 -2.32205 -2.33382 -3.18135 -2.32205 -2.97051 -3.18135 -3.91291 -2.97051 -3.55403 -3.91291 -4.55741 -3.55403 -4.08679 -4.55741 -5.14492 -4.08679 -4.58818 -5.14492 -5.70307 -4.58818 -5.07755 -5.70307 -6.24759 -5.07755 -5.56051 -6.24759 -6.78486 -5.56051 -6.04337 -6.78486 -7.31719 -6.04337 -6.52657 -7.31719 -7.84752 -6.52657 -7.00865 -7.84752 -8.37736 -7.00865 -7.49019 -8.37736 -8.90815 -7.49019 -7.97602 -8.90815 -9.43366 -7.97602 -8.4623 -9.43366 -9.94223 -8.4623 -8.95061 -9.94223 -10.4326 -8.95061 -9.44339 -10.4326 -10.9152 -9.44339 -9.93658 -10.9152 -11.3957 -9.93658 -10.4269 -11.3957 -11.877 -10.4269 -10.9122 -11.877 -12.3694 -10.9122 -11.3925 -12.3694 -12.8837 -11.3925 -11.8559 -12.8837 -13.4336 -11.8559 -12.3111 -13.4336 -14.0215 -12.3111 -12.7543 -14.0215 -14.5942 -12.7543 -13.1476 -14.5942 -15.0375 -14.2381 -14.6622 -16.5765 -16.9657 -14.6622 -15.0412 -16.9657 -17.2934 -15.0412 -15.3614 -17.2934 -17.566 -15.3614 -15.6162 -17.566 -17.7913 -15.6162 -15.8085 -17.7913 -17.9563 -15.8085 -15.9484 -17.9563 -18.0603 -15.9484 -16.0451 -18.0603 -18.1123 -16.0451 -16.1035 -18.1123 -18.1252 -16.1035 -16.1313 -18.1252 -18.1149 -16.1313 -16.1398 -18.1149 -18.1006 -16.1398 -16.1424 -18.1006 -18.0956 15.8799 16.1194 14.786 14.9696 5.56051 5.80194 4.94878 5.17754 5.80194 6.04337 5.17754 5.40706 4.94878 5.17754 4.33592 4.55321 5.17754 5.40706 4.55321 4.7707 6.04337 6.28497 5.40706 5.63676 6.28497 6.52657 5.63676 5.86648 5.40706 5.63676 4.7707 4.9884 5.63676 5.86648 4.9884 5.20636 6.52657 6.76761 5.86648 6.09616 6.76761 7.00865 6.09616 6.32547 5.86648 6.09616 5.20636 5.42461 6.09616 6.32547 5.42461 5.64319 7.00865 7.24942 6.32547 6.554 7.24942 7.49019 6.554 6.78207 6.32547 6.554 5.64319 5.86174 6.554 6.78207 5.86174 6.07817 7.49019 7.73311 6.78207 7.01237 7.73311 7.97602 7.01237 7.24638 7.97602 8.21916 7.24638 7.48256 8.21916 8.4623 7.48256 7.72109 8.4623 8.70646 7.72109 7.96334 8.70646 8.95061 7.96334 8.21035 8.95061 9.197 8.21035 8.45893 9.197 9.44339 8.45893 8.70811 9.44339 9.68999 8.70811 8.95744 9.68999 9.93658 8.95744 9.2068 9.93658 10.1818 9.2068 9.45591 10.1818 10.4269 9.45591 9.70301 10.4269 10.6695 9.70301 9.94594 10.6695 10.9122 9.94594 10.1838 10.9122 11.1523 10.1838 10.4207 11.1523 11.3925 10.4207 10.6494 11.3925 11.6242 10.6494 10.8674 11.6242 11.8559 10.8674 11.0745 10.8674 11.0745 10.1259 10.3267 14.2381 14.4501 13.3135 13.2619 14.4501 14.6622 13.2619 13.5764 0 0.265191 0 0.204811 0.265191 0.530382 0.204811 0.418123 0.530382 0.808525 0.418123 0.638674 0.808525 1.08667 0.638674 0.870619 0.638674 0.870619 0.457037 0.6482 11.3701 11.5048 10.4544 10.5659 11.5048 11.6278 10.5659 10.6805 12.9772 13.1431 11.9884 12.1882 13.1431 13.309 12.1882 12.4071 12.1882 12.4071 11.2448 11.184 0 -0.0809745 0 -0.178743 1.04935 1.25719 0.753736 0.937946 1.25719 1.46503 0.937946 1.12395 3.90006 4.0801 3.45479 3.41954 4.0801 4.2743 3.41954 3.61669 8.37034 8.9134 8.04471 7.59701 8.04471 7.59701 7.35693 7.8375 9.9835 10.1181 9.03772 9.18189 10.1181 10.2519 9.18189 9.32093 9.86167 9.99471 8.94113 9.07506 11.4465 11.578 10.4876 10.5924 -0.177819 0.186817 -1.537 -0.900928 0.186817 0.00801261 -0.900928 -0.264856 1.29819 1.46084 0.929228 1.09046 2.33736 2.49037 1.97529 2.12748 3.66809 3.80295 3.2225 3.35597 3.80295 4.21319 3.35597 3.41791 7.10591 6.98447 5.80227 5.92911 6.71436 7.21971 5.69784 5.97787 7.21971 7.12868 5.97787 6.2579 10.1246 10.2 9.24321 9.42803 -0.290409 -0.00582599 -0.218176 -0.181736 -0.00582599 0.0983329 -0.181736 -0.145295 1.2011 1.35739 0.838374 0.993503 2.22859 2.38262 1.8652 2.01926 2.38262 2.54449 2.01926 2.17332 3.67953 5.24934 3.52977 3.06975 5.24934 5.02142 3.06975 3.81844 5.02142 4.79349 3.81844 4.06107 5.95752 6.16398 5.40308 5.58965 5.40308 5.58965 4.84865 4.98232 5.6561 5.65308 4.97368 4.97142 5.81615 5.86183 5.0759 5.14057 7.24518 7.38089 6.32988 6.46924 8.57029 8.6636 7.67951 7.84897 8.6636 8.7569 7.84897 7.94446 -0.013154 0.0309086 -0.0653597 -0.0509839 0.0309086 0.0347729 -0.0509839 -0.0366081 1.09492 1.24937 0.731441 0.887816 2.10589 2.25938 1.72186 1.86786 2.25938 2.41637 1.86786 2.01386 2.41637 2.57699 2.01386 2.16496 4.20492 4.48191 3.52437 3.89795 4.99036 4.93291 4.02883 4.22625 4.02883 4.22625 3.62563 3.5196 4.59693 4.45618 3.23584 3.75653 5.97097 6.1068 5.06447 5.20158 5.74685 5.88445 4.84067 4.97451 7.29057 7.30492 6.55864 6.58127 7.30492 7.31927 6.58127 6.58538 -0.100207 -0.0885559 -0.170018 -0.332656 -0.0885559 0.0290802 -0.332656 -0.495294 0.0290802 -0.0180519 -0.495294 -0.347856 0.987828 1.13955 0.628025 0.783299 2.1704 2.30474 1.71699 1.82233 2.30474 2.43393 1.82233 1.92767 3.62797 3.62465 2.9485 2.94434 2.9485 2.94434 2.25817 2.2651 3.07982 3.14133 2.42654 2.41509 3.14133 3.17732 2.41509 2.40365 4.46384 4.60387 3.53478 3.66785 5.79966 5.75619 4.95173 4.93776 -0.12718 -0.0654471 -0.271487 -0.309932 0.852253 0.978754 0.509823 0.633454 2.28447 2.23691 1.44938 1.61941 1.44938 1.61941 0.962423 1.00191 1.5492 1.79278 1.11245 1.12658 3.15949 3.28193 2.26588 2.38277 -0.125064 -0.150649 -4.34382e-12 1.70236e-11 0.967458 0.96542 0.483729 0.441088 0.483729 0.441088 1.73408e-12 2.03335e-12 0.560215 0.55826 -2.13351e-10 7.63339e-11 -4.34382e-12 1.70236e-11 0.125064 0.150649 1.73408e-12 2.03335e-12 -0.483729 -0.441088 -0.483729 -0.441088 -0.967458 -0.96542 -2.13351e-10 7.63339e-11 -0.560215 -0.55826 0.271487 0.309932 0.12718 0.0654471 -0.509823 -0.633454 -0.852253 -0.978754 -0.962423 -1.00191 -1.44938 -1.61941 -1.44938 -1.61941 -2.28447 -2.23691 -1.11245 -1.12658 -1.5492 -1.79278 -2.26588 -2.38277 -3.15949 -3.28193 0.170018 0.332656 0.100207 0.0885559 0.332656 0.495294 0.0885559 -0.0290802 0.495294 0.347856 -0.0290802 0.0180519 -0.628025 -0.783299 -0.987828 -1.13955 -1.71699 -1.82233 -2.1704 -2.30474 -1.82233 -1.92767 -2.30474 -2.43393 -2.25817 -2.2651 -2.9485 -2.94434 -2.9485 -2.94434 -3.62797 -3.62465 -2.42654 -2.41509 -3.07982 -3.14133 -2.41509 -2.40365 -3.14133 -3.17732 -3.53478 -3.66785 -4.46384 -4.60387 -4.95173 -4.93776 -5.79966 -5.75619 0.0653597 0.0509839 0.013154 -0.0309086 0.0509839 0.0366081 -0.0309086 -0.0347729 -0.731441 -0.887816 -1.09492 -1.24937 -1.72186 -1.86786 -2.10589 -2.25938 -1.86786 -2.01386 -2.25938 -2.41637 -2.01386 -2.16496 -2.41637 -2.57699 -3.52437 -3.89795 -4.20492 -4.48191 -3.62563 -3.5196 -4.02883 -4.22625 -4.02883 -4.22625 -4.99036 -4.93291 -3.23584 -3.75653 -4.59693 -4.45618 -5.06447 -5.20158 -5.97097 -6.1068 -4.84067 -4.97451 -5.74685 -5.88445 -6.55864 -6.58127 -7.29057 -7.30492 -6.58127 -6.58538 -7.30492 -7.31927 0.218176 0.181736 0.290409 0.00582599 0.181736 0.145295 0.00582599 -0.0983329 -0.838374 -0.993503 -1.2011 -1.35739 -1.8652 -2.01926 -2.22859 -2.38262 -2.01926 -2.17332 -2.38262 -2.54449 -3.52977 -3.06975 -3.67953 -5.24934 -3.06975 -3.81844 -5.24934 -5.02142 -3.81844 -4.06107 -5.02142 -4.79349 -4.84865 -4.98232 -5.40308 -5.58965 -5.40308 -5.58965 -5.95752 -6.16398 -4.97368 -4.97142 -5.6561 -5.65308 -5.0759 -5.14057 -5.81615 -5.86183 -6.32988 -6.46924 -7.24518 -7.38089 -7.67951 -7.84897 -8.57029 -8.6636 -7.84897 -7.94446 -8.6636 -8.7569 1.537 0.900928 0.177819 -0.186817 0.900928 0.264856 -0.186817 -0.00801261 -0.929228 -1.09046 -1.29819 -1.46084 -1.97529 -2.12748 -2.33736 -2.49037 -3.2225 -3.35597 -3.66809 -3.80295 -3.35597 -3.41791 -3.80295 -4.21319 -5.80227 -5.92911 -7.10591 -6.98447 -5.69784 -5.97787 -6.71436 -7.21971 -5.97787 -6.2579 -7.21971 -7.12868 -9.24321 -9.42803 -10.1246 -10.2 0 0.178743 0 0.0809745 -0.753736 -0.937946 -1.04935 -1.25719 -0.937946 -1.12395 -1.25719 -1.46503 -3.45479 -3.41954 -3.90006 -4.0801 -3.41954 -3.61669 -4.0801 -4.2743 -7.35693 -7.8375 -8.04471 -7.59701 -8.04471 -7.59701 -8.37034 -8.9134 -9.03772 -9.18189 -9.9835 -10.1181 -9.18189 -9.32093 -10.1181 -10.2519 -8.94113 -9.07506 -9.86167 -9.99471 -10.4876 -10.5924 -11.4465 -11.578 0 -0.204811 0 -0.265191 -0.204811 -0.418123 -0.265191 -0.530382 -0.457037 -0.6482 -0.638674 -0.870619 -0.418123 -0.638674 -0.530382 -0.808525 -0.638674 -0.870619 -0.808525 -1.08667 -10.4544 -10.5659 -11.3701 -11.5048 -10.5659 -10.6805 -11.5048 -11.6278 -11.2448 -11.184 -12.1882 -12.4071 -11.9884 -12.1882 -12.9772 -13.1431 -12.1882 -12.4071 -13.1431 -13.309 -4.33592 -4.55321 -4.94878 -5.17754 -4.55321 -4.7707 -5.17754 -5.40706 -4.94878 -5.17754 -5.56051 -5.80194 -5.17754 -5.40706 -5.80194 -6.04337 -4.7707 -4.9884 -5.40706 -5.63676 -4.9884 -5.20636 -5.63676 -5.86648 -5.40706 -5.63676 -6.04337 -6.28497 -5.63676 -5.86648 -6.28497 -6.52657 -5.20636 -5.42461 -5.86648 -6.09616 -5.42461 -5.64319 -6.09616 -6.32547 -5.86648 -6.09616 -6.52657 -6.76761 -6.09616 -6.32547 -6.76761 -7.00865 -5.64319 -5.86174 -6.32547 -6.554 -5.86174 -6.07817 -6.554 -6.78207 -6.32547 -6.554 -7.00865 -7.24942 -6.554 -6.78207 -7.24942 -7.49019 -6.78207 -7.01237 -7.49019 -7.73311 -7.01237 -7.24638 -7.73311 -7.97602 -7.24638 -7.48256 -7.97602 -8.21916 -7.48256 -7.72109 -8.21916 -8.4623 -7.72109 -7.96334 -8.4623 -8.70646 -7.96334 -8.21035 -8.70646 -8.95061 -8.21035 -8.45893 -8.95061 -9.197 -8.45893 -8.70811 -9.197 -9.44339 -8.70811 -8.95744 -9.44339 -9.68999 -8.95744 -9.2068 -9.68999 -9.93658 -9.2068 -9.45591 -9.93658 -10.1818 -9.45591 -9.70301 -10.1818 -10.4269 -9.70301 -9.94594 -10.4269 -10.6695 -9.94594 -10.1838 -10.6695 -10.9122 -10.1838 -10.4207 -10.9122 -11.1523 -10.4207 -10.6494 -11.1523 -11.3925 -10.1259 -10.3267 -10.8674 -11.0745 -10.6494 -10.8674 -11.3925 -11.6242 -10.8674 -11.0745 -11.6242 -11.8559 -13.3135 -13.2619 -14.2381 -14.4501 -13.2619 -13.5764 -14.4501 -14.6622 -14.786 -14.9696 -15.8799 -16.1194 15.0375 15.1791 14.0926 14.2446 14.0926 14.2446 13.1476 13.3247 16.1194 16.3585 14.9696 15.193 16.3585 16.5765 15.193 15.4073 15.193 15.4073 14.09 14.2381 5.07755 5.31903 4.49661 4.72205 5.31903 5.56051 4.72205 4.94878 4.49661 4.72205 3.91183 4.12043 4.72205 4.94878 4.12043 4.33592 11.8559 12.0835 11.0745 11.2837 12.0835 12.3111 11.2837 11.5022 11.0745 11.2837 10.3267 10.5149 11.283