# vtk DataFile Version 3.0
#This file was generated by the deal.II library on 2015/9/2 at 7:53: 6
ASCII
DATASET UNSTRUCTURED_GRID

POINTS 3200 double
0 0 0
0.05 0 0
0 0.05 0
0.05 0.05 0
0.05 0 0
0.1 0 0
0.05 0.05 0
0.1 0.05 0
0.1 0 0
0.15 0 0
0.1 0.05 0
0.15 0.05 0
0.15 0 0
0.2 0 0
0.15 0.05 0
0.2 0.05 0
0.2 0 0
0.25 0 0
0.2 0.05 0
0.25 0.05 0
0.25 0 0
0.3 0 0
0.25 0.05 0
0.3 0.05 0
0.3 0 0
0.35 0 0
0.3 0.05 0
0.35 0.05 0
0.35 0 0
0.4 0 0
0.35 0.05 0
0.4 0.05 0
0.4 0 0
0.45 0 0
0.4 0.05 0
0.45 0.05 0
0.45 0 0
0.5 0 0
0.45 0.05 0
0.5 0.05 0
0.5 0 0
0.55 0 0
0.5 0.05 0
0.55 0.05 0
0.55 0 0
0.6 0 0
0.55 0.05 0
0.6 0.05 0
0.6 0 0
0.65 0 0
0.6 0.05 0
0.65 0.05 0
0.65 0 0
0.7 0 0
0.65 0.05 0
0.7 0.05 0
0.7 0 0
0.75 0 0
0.7 0.05 0
0.75 0.05 0
0.75 0 0
0.8 0 0
0.75 0.05 0
0.8 0.05 0
0.8 0 0
0.85 0 0
0.8 0.05 0
0.85 0.05 0
0.85 0 0
0.9 0 0
0.85 0.05 0
0.9 0.05 0
0.9 0 0
0.95 0 0
0.9 0.05 0
0.95 0.05 0
0.95 0 0
1 0 0
0.95 0.05 0
1 0.05 0
1 0 0
1.05 0 0
1 0.05 0
1.05 0.05 0
1.05 0 0
1.1 0 0
1.05 0.05 0
1.1 0.05 0
1.1 0 0
1.15 0 0
1.1 0.05 0
1.15 0.05 0
1.15 0 0
1.2 0 0
1.15 0.05 0
1.2 0.05 0
1.2 0 0
1.25 0 0
1.2 0.05 0
1.25 0.05 0
1.25 0 0
1.3 0 0
1.25 0.05 0
1.3 0.05 0
1.3 0 0
1.35 0 0
1.3 0.05 0
1.35 0.05 0
1.35 0 0
1.4 0 0
1.35 0.05 0
1.4 0.05 0
1.4 0 0
1.45 0 0
1.4 0.05 0
1.45 0.05 0
1.45 0 0
1.5 0 0
1.45 0.05 0
1.5 0.05 0
1.5 0 0
1.55 0 0
1.5 0.05 0
1.55 0.05 0
1.55 0 0
1.6 0 0
1.55 0.05 0
1.6 0.05 0
1.6 0 0
1.65 0 0
1.6 0.05 0
1.65 0.05 0
1.65 0 0
1.7 0 0
1.65 0.05 0
1.7 0.05 0
1.7 0 0
1.75 0 0
1.7 0.05 0
1.75 0.05 0
1.75 0 0
1.8 0 0
1.75 0.05 0
1.8 0.05 0
1.8 0 0
1.85 0 0
1.8 0.05 0
1.85 0.05 0
1.85 0 0
1.9 0 0
1.85 0.05 0
1.9 0.05 0
1.9 0 0
1.95 0 0
1.9 0.05 0
1.95 0.05 0
1.95 0 0
2 0 0
1.95 0.05 0
2 0.05 0
0 0.05 0
0.05 0.05 0
0 0.1 0
0.05 0.1 0
0.05 0.05 0
0.1 0.05 0
0.05 0.1 0
0.1 0.1 0
0.1 0.05 0
0.15 0.05 0
0.1 0.1 0
0.15 0.1 0
0.15 0.05 0
0.2 0.05 0
0.15 0.1 0
0.2 0.1 0
0.2 0.05 0
0.25 0.05 0
0.2 0.1 0
0.25 0.1 0
0.25 0.05 0
0.3 0.05 0
0.25 0.1 0
0.3 0.1 0
0.3 0.05 0
0.35 0.05 0
0.3 0.1 0
0.35 0.1 0
0.35 0.05 0
0.4 0.05 0
0.35 0.1 0
0.4 0.1 0
0.4 0.05 0
0.45 0.05 0
0.4 0.1 0
0.45 0.1 0
0.45 0.05 0
0.5 0.05 0
0.45 0.1 0
0.5 0.1 0
0.5 0.05 0
0.55 0.05 0
0.5 0.1 0
0.55 0.1 0
0.55 0.05 0
0.6 0.05 0
0.55 0.1 0
0.6 0.1 0
0.6 0.05 0
0.65 0.05 0
0.6 0.1 0
0.65 0.1 0
0.65 0.05 0
0.7 0.05 0
0.65 0.1 0
0.7 0.1 0
0.7 0.05 0
0.75 0.05 0
0.7 0.1 0
0.75 0.1 0
0.75 0.05 0
0.8 0.05 0
0.75 0.1 0
0.8 0.1 0
0.8 0.05 0
0.85 0.05 0
0.8 0.1 0
0.85 0.1 0
0.85 0.05 0
0.9 0.05 0
0.85 0.1 0
0.9 0.1 0
0.9 0.05 0
0.95 0.05 0
0.9 0.1 0
0.95 0.1 0
0.95 0.05 0
1 0.05 0
0.95 0.1 0
1 0.1 0
1 0.05 0
1.05 0.05 0
1 0.1 0
1.05 0.1 0
1.05 0.05 0
1.1 0.05 0
1.05 0.1 0
1.1 0.1 0
1.1 0.05 0
1.15 0.05 0
1.1 0.1 0
1.15 0.1 0
1.15 0.05 0
1.2 0.05 0
1.15 0.1 0
1.2 0.1 0
1.2 0.05 0
1.25 0.05 0
1.2 0.1 0
1.25 0.1 0
1.25 0.05 0
1.3 0.05 0
1.25 0.1 0
1.3 0.1 0
1.3 0.05 0
1.35 0.05 0
1.3 0.1 0
1.35 0.1 0
1.35 0.05 0
1.4 0.05 0
1.35 0.1 0
1.4 0.1 0
1.4 0.05 0
1.45 0.05 0
1.4 0.1 0
1.45 0.1 0
1.45 0.05 0
1.5 0.05 0
1.45 0.1 0
1.5 0.1 0
1.5 0.05 0
1.55 0.05 0
1.5 0.1 0
1.55 0.1 0
1.55 0.05 0
1.6 0.05 0
1.55 0.1 0
1.6 0.1 0
1.6 0.05 0
1.65 0.05 0
1.6 0.1 0
1.65 0.1 0
1.65 0.05 0
1.7 0.05 0
1.65 0.1 0
1.7 0.1 0
1.7 0.05 0
1.75 0.05 0
1.7 0.1 0
1.75 0.1 0
1.75 0.05 0
1.8 0.05 0
1.75 0.1 0
1.8 0.1 0
1.8 0.05 0
1.85 0.05 0
1.8 0.1 0
1.85 0.1 0
1.85 0.05 0
1.9 0.05 0
1.85 0.1 0
1.9 0.1 0
1.9 0.05 0
1.95 0.05 0
1.9 0.1 0
1.95 0.1 0
1.95 0.05 0
2 0.05 0
1.95 0.1 0
2 0.1 0
0 0.1 0
0.05 0.1 0
0 0.15 0
0.05 0.15 0
0.05 0.1 0
0.1 0.1 0
0.05 0.15 0
0.1 0.15 0
0.1 0.1 0
0.15 0.1 0
0.1 0.15 0
0.15 0.15 0
0.15 0.1 0
0.2 0.1 0
0.15 0.15 0
0.2 0.15 0
0.2 0.1 0
0.25 0.1 0
0.2 0.15 0
0.25 0.15 0
0.25 0.1 0
0.3 0.1 0
0.25 0.15 0
0.3 0.15 0
0.3 0.1 0
0.35 0.1 0
0.3 0.15 0
0.35 0.15 0
0.35 0.1 0
0.4 0.1 0
0.35 0.15 0
0.4 0.15 0
0.4 0.1 0
0.45 0.1 0
0.4 0.15 0
0.45 0.15 0
0.45 0.1 0
0.5 0.1 0
0.45 0.15 0
0.5 0.15 0
0.5 0.1 0
0.55 0.1 0
0.5 0.15 0
0.55 0.15 0
0.55 0.1 0
0.6 0.1 0
0.55 0.15 0
0.6 0.15 0
0.6 0.1 0
0.65 0.1 0
0.6 0.15 0
0.65 0.15 0
0.65 0.1 0
0.7 0.1 0
0.65 0.15 0
0.7 0.15 0
0.7 0.1 0
0.75 0.1 0
0.7 0.15 0
0.75 0.15 0
0.75 0.1 0
0.8 0.1 0
0.75 0.15 0
0.8 0.15 0
0.8 0.1 0
0.85 0.1 0
0.8 0.15 0
0.85 0.15 0
0.85 0.1 0
0.9 0.1 0
0.85 0.15 0
0.9 0.15 0
0.9 0.1 0
0.95 0.1 0
0.9 0.15 0
0.95 0.15 0
0.95 0.1 0
1 0.1 0
0.95 0.15 0
1 0.15 0
1 0.1 0
1.05 0.1 0
1 0.15 0
1.05 0.15 0
1.05 0.1 0
1.1 0.1 0
1.05 0.15 0
1.1 0.15 0
1.1 0.1 0
1.15 0.1 0
1.1 0.15 0
1.15 0.15 0
1.15 0.1 0
1.2 0.1 0
1.15 0.15 0
1.2 0.15 0
1.2 0.1 0
1.25 0.1 0
1.2 0.15 0
1.25 0.15 0
1.25 0.1 0
1.3 0.1 0
1.25 0.15 0
1.3 0.15 0
1.3 0.1 0
1.35 0.1 0
1.3 0.15 0
1.35 0.15 0
1.35 0.1 0
1.4 0.1 0
1.35 0.15 0
1.4 0.15 0
1.4 0.1 0
1.45 0.1 0
1.4 0.15 0
1.45 0.15 0
1.45 0.1 0
1.5 0.1 0
1.45 0.15 0
1.5 0.15 0
1.5 0.1 0
1.55 0.1 0
1.5 0.15 0
1.55 0.15 0
1.55 0.1 0
1.6 0.1 0
1.55 0.15 0
1.6 0.15 0
1.6 0.1 0
1.65 0.1 0
1.6 0.15 0
1.65 0.15 0
1.65 0.1 0
1.7 0.1 0
1.65 0.15 0
1.7 0.15 0
1.7 0.1 0
1.75 0.1 0
1.7 0.15 0
1.75 0.15 0
1.75 0.1 0
1.8 0.1 0
1.75 0.15 0
1.8 0.15 0
1.8 0.1 0
1.85 0.1 0
1.8 0.15 0
1.85 0.15 0
1.85 0.1 0
1.9 0.1 0
1.85 0.15 0
1.9 0.15 0
1.9 0.1 0
1.95 0.1 0
1.9 0.15 0
1.95 0.15 0
1.95 0.1 0
2 0.1 0
1.95 0.15 0
2 0.15 0
0 0.15 0
0.05 0.15 0
0 0.2 0
0.05 0.2 0
0.05 0.15 0
0.1 0.15 0
0.05 0.2 0
0.1 0.2 0
0.1 0.15 0
0.15 0.15 0
0.1 0.2 0
0.15 0.2 0
0.15 0.15 0
0.2 0.15 0
0.15 0.2 0
0.2 0.2 0
0.2 0.15 0
0.25 0.15 0
0.2 0.2 0
0.25 0.2 0
0.25 0.15 0
0.3 0.15 0
0.25 0.2 0
0.3 0.2 0
0.3 0.15 0
0.35 0.15 0
0.3 0.2 0
0.35 0.2 0
0.35 0.15 0
0.4 0.15 0
0.35 0.2 0
0.4 0.2 0
0.4 0.15 0
0.45 0.15 0
0.4 0.2 0
0.45 0.2 0
0.45 0.15 0
0.5 0.15 0
0.45 0.2 0
0.5 0.2 0
0.5 0.15 0
0.55 0.15 0
0.5 0.2 0
0.55 0.2 0
0.55 0.15 0
0.6 0.15 0
0.55 0.2 0
0.6 0.2 0
0.6 0.15 0
0.65 0.15 0
0.6 0.2 0
0.65 0.2 0
0.65 0.15 0
0.7 0.15 0
0.65 0.2 0
0.7 0.2 0
0.7 0.15 0
0.75 0.15 0
0.7 0.2 0
0.75 0.2 0
0.75 0.15 0
0.8 0.15 0
0.75 0.2 0
0.8 0.2 0
0.8 0.15 0
0.85 0.15 0
0.8 0.2 0
0.85 0.2 0
0.85 0.15 0
0.9 0.15 0
0.85 0.2 0
0.9 0.2 0
0.9 0.15 0
0.95 0.15 0
0.9 0.2 0
0.95 0.2 0
0.95 0.15 0
1 0.15 0
0.95 0.2 0
1 0.2 0
1 0.15 0
1.05 0.15 0
1 0.2 0
1.05 0.2 0
1.05 0.15 0
1.1 0.15 0
1.05 0.2 0
1.1 0.2 0
1.1 0.15 0
1.15 0.15 0
1.1 0.2 0
1.15 0.2 0
1.15 0.15 0
1.2 0.15 0
1.15 0.2 0
1.2 0.2 0
1.2 0.15 0
1.25 0.15 0
1.2 0.2 0
1.25 0.2 0
1.25 0.15 0
1.3 0.15 0
1.25 0.2 0
1.3 0.2 0
1.3 0.15 0
1.35 0.15 0
1.3 0.2 0
1.35 0.2 0
1.35 0.15 0
1.4 0.15 0
1.35 0.2 0
1.4 0.2 0
1.4 0.15 0
1.45 0.15 0
1.4 0.2 0
1.45 0.2 0
1.45 0.15 0
1.5 0.15 0
1.45 0.2 0
1.5 0.2 0
1.5 0.15 0
1.55 0.15 0
1.5 0.2 0
1.55 0.2 0
1.55 0.15 0
1.6 0.15 0
1.55 0.2 0
1.6 0.2 0
1.6 0.15 0
1.65 0.15 0
1.6 0.2 0
1.65 0.2 0
1.65 0.15 0
1.7 0.15 0
1.65 0.2 0
1.7 0.2 0
1.7 0.15 0
1.75 0.15 0
1.7 0.2 0
1.75 0.2 0
1.75 0.15 0
1.8 0.15 0
1.75 0.2 0
1.8 0.2 0
1.8 0.15 0
1.85 0.15 0
1.8 0.2 0
1.85 0.2 0
1.85 0.15 0
1.9 0.15 0
1.85 0.2 0
1.9 0.2 0
1.9 0.15 0
1.95 0.15 0
1.9 0.2 0
1.95 0.2 0
1.95 0.15 0
2 0.15 0
1.95 0.2 0
2 0.2 0
0 0.2 0
0.05 0.2 0
0 0.25 0
0.05 0.25 0
0.05 0.2 0
0.1 0.2 0
0.05 0.25 0
0.1 0.25 0
0.1 0.2 0
0.15 0.2 0
0.1 0.25 0
0.15 0.25 0
0.15 0.2 0
0.2 0.2 0
0.15 0.25 0
0.2 0.25 0
0.2 0.2 0
0.25 0.2 0
0.2 0.25 0
0.25 0.25 0
0.25 0.2 0
0.3 0.2 0
0.25 0.25 0
0.3 0.25 0
0.3 0.2 0
0.35 0.2 0
0.3 0.25 0
0.35 0.25 0
0.35 0.2 0
0.4 0.2 0
0.35 0.25 0
0.4 0.25 0
0.4 0.2 0
0.45 0.2 0
0.4 0.25 0
0.45 0.25 0
0.45 0.2 0
0.5 0.2 0
0.45 0.25 0
0.5 0.25 0
0.5 0.2 0
0.55 0.2 0
0.5 0.25 0
0.55 0.25 0
0.55 0.2 0
0.6 0.2 0
0.55 0.25 0
0.6 0.25 0
0.6 0.2 0
0.65 0.2 0
0.6 0.25 0
0.65 0.25 0
0.65 0.2 0
0.7 0.2 0
0.65 0.25 0
0.7 0.25 0
0.7 0.2 0
0.75 0.2 0
0.7 0.25 0
0.75 0.25 0
0.75 0.2 0
0.8 0.2 0
0.75 0.25 0
0.8 0.25 0
0.8 0.2 0
0.85 0.2 0
0.8 0.25 0
0.85 0.25 0
0.85 0.2 0
0.9 0.2 0
0.85 0.25 0
0.9 0.25 0
0.9 0.2 0
0.95 0.2 0
0.9 0.25 0
0.95 0.25 0
0.95 0.2 0
1 0.2 0
0.95 0.25 0
1 0.25 0
1 0.2 0
1.05 0.2 0
1 0.25 0
1.05 0.25 0
1.05 0.2 0
1.1 0.2 0
1.05 0.25 0
1.1 0.25 0
1.1 0.2 0
1.15 0.2 0
1.1 0.25 0
1.15 0.25 0
1.15 0.2 0
1.2 0.2 0
1.15 0.25 0
1.2 0.25 0
1.2 0.2 0
1.25 0.2 0
1.2 0.25 0
1.25 0.25 0
1.25 0.2 0
1.3 0.2 0
1.25 0.25 0
1.3 0.25 0
1.3 0.2 0
1.35 0.2 0
1.3 0.25 0
1.35 0.25 0
1.35 0.2 0
1.4 0.2 0
1.35 0.25 0
1.4 0.25 0
1.4 0.2 0
1.45 0.2 0
1.4 0.25 0
1.45 0.25 0
1.45 0.2 0
1.5 0.2 0
1.45 0.25 0
1.5 0.25 0
1.5 0.2 0
1.55 0.2 0
1.5 0.25 0
1.55 0.25 0
1.55 0.2 0
1.6 0.2 0
1.55 0.25 0
1.6 0.25 0
1.6 0.2 0
1.65 0.2 0
1.6 0.25 0
1.65 0.25 0
1.65 0.2 0
1.7 0.2 0
1.65 0.25 0
1.7 0.25 0
1.7 0.2 0
1.75 0.2 0
1.7 0.25 0
1.75 0.25 0
1.75 0.2 0
1.8 0.2 0
1.75 0.25 0
1.8 0.25 0
1.8 0.2 0
1.85 0.2 0
1.8 0.25 0
1.85 0.25 0
1.85 0.2 0
1.9 0.2 0
1.85 0.25 0
1.9 0.25 0
1.9 0.2 0
1.95 0.2 0
1.9 0.25 0
1.95 0.25 0
1.95 0.2 0
2 0.2 0
1.95 0.25 0
2 0.25 0
0 0.25 0
0.05 0.25 0
0 0.3 0
0.05 0.3 0
0.05 0.25 0
0.1 0.25 0
0.05 0.3 0
0.1 0.3 0
0.1 0.25 0
0.15 0.25 0
0.1 0.3 0
0.15 0.3 0
0.15 0.25 0
0.2 0.25 0
0.15 0.3 0
0.2 0.3 0
0.2 0.25 0
0.25 0.25 0
0.2 0.3 0
0.25 0.3 0
0.25 0.25 0
0.3 0.25 0
0.25 0.3 0
0.3 0.3 0
0.3 0.25 0
0.35 0.25 0
0.3 0.3 0
0.35 0.3 0
0.35 0.25 0
0.4 0.25 0
0.35 0.3 0
0.4 0.3 0
0.4 0.25 0
0.45 0.25 0
0.4 0.3 0
0.45 0.3 0
0.45 0.25 0
0.5 0.25 0
0.45 0.3 0
0.5 0.3 0
0.5 0.25 0
0.55 0.25 0
0.5 0.3 0
0.55 0.3 0
0.55 0.25 0
0.6 0.25 0
0.55 0.3 0
0.6 0.3 0
0.6 0.25 0
0.65 0.25 0
0.6 0.3 0
0.65 0.3 0
0.65 0.25 0
0.7 0.25 0
0.65 0.3 0
0.7 0.3 0
0.7 0.25 0
0.75 0.25 0
0.7 0.3 0
0.75 0.3 0
0.75 0.25 0
0.8 0.25 0
0.75 0.3 0
0.8 0.3 0
0.8 0.25 0
0.85 0.25 0
0.8 0.3 0
0.85 0.3 0
0.85 0.25 0
0.9 0.25 0
0.85 0.3 0
0.9 0.3 0
0.9 0.25 0
0.95 0.25 0
0.9 0.3 0
0.95 0.3 0
0.95 0.25 0
1 0.25 0
0.95 0.3 0
1 0.3 0
1 0.25 0
1.05 0.25 0
1 0.3 0
1.05 0.3 0
1.05 0.25 0
1.1 0.25 0
1.05 0.3 0
1.1 0.3 0
1.1 0.25 0
1.15 0.25 0
1.1 0.3 0
1.15 0.3 0
1.15 0.25 0
1.2 0.25 0
1.15 0.3 0
1.2 0.3 0
1.2 0.25 0
1.25 0.25 0
1.2 0.3 0
1.25 0.3 0
1.25 0.25 0
1.3 0.25 0
1.25 0.3 0
1.3 0.3 0
1.3 0.25 0
1.35 0.25 0
1.3 0.3 0
1.35 0.3 0
1.35 0.25 0
1.4 0.25 0
1.35 0.3 0
1.4 0.3 0
1.4 0.25 0
1.45 0.25 0
1.4 0.3 0
1.45 0.3 0
1.45 0.25 0
1.5 0.25 0
[...]
POINT_DATA 3200
SCALARS x_displacement double 1
LOOKUP_TABLE default
0 3.36969 0 2.1341 3.36969 6.4137 2.1341 4.71031 6.4137 9.42443 4.71031 7.32124 9.42443 12.407 7.32124 9.93614 12.407 15.3584 9.93614 12.5462 15.3584 18.2864 12.5462 15.1495 18.2864 21.1973 15.1495 17.7464 21.1973 24.0961 17.7464 20.3382 24.0961 26.9868 20.3382 22.9259 26.9868 29.873 22.9259 25.5112 29.873 32.7568 25.5112 28.0963 32.7568 35.6381 28.0963 30.6812 35.6381 38.5161 30.6812 33.2648 38.5161 41.393 33.2648 35.8454 41.393 44.2721 35.8454 38.4241 44.2721 47.1511 38.4241 41.003 47.1511 50.0308 41.003 43.5685 50.0308 52.9124 43.5685 46.1395 52.9124 55.7657 46.1395 48.8146 55.7657 58.6598 48.8146 51.5261 58.6598 61.8467 51.5261 54.3408 61.8467 65.0093 54.3408 57.0349 65.0093 67.9801 57.0349 59.6151 67.9801 70.6696 59.6151 62.0479 70.6696 73.273 62.0479 64.4109 73.273 75.8355 64.4109 66.7237 75.8355 78.3346 66.7237 68.9743 78.3346 80.7483 68.9743 71.1476 80.7483 83.0527 71.1476 73.2257 83.0527 85.2203 73.2257 75.1874 85.2203 87.2189 75.1874 77.0077 87.2189 89.0111 77.0077 78.6582 89.0111 90.5552 78.6582 80.1078 90.5552 91.8101 80.1078 81.3265 91.8101 92.743 81.3265 82.2908 92.743 93.3442 82.2908 82.9917 93.3442 93.6423 82.9917 83.4427 93.6423 93.7152 83.4427 83.6825 93.7152 93.6841 83.6825 83.772 93.6841 93.6624 83.772 83.7931 0 2.1341 0 1.75574 2.1341 4.71031 1.75574 3.68367 4.71031 7.32124 3.68367 5.77333 7.32124 9.93614 5.77333 7.93967 9.93614 12.5462 7.93967 10.1542 12.5462 15.1495 10.1542 12.3971 15.1495 17.7464 12.3971 14.6576 17.7464 20.3382 14.6576 16.9292 20.3382 22.9259 16.9292 19.2072 22.9259 25.5112 19.2072 21.4889 25.5112 28.0963 21.4889 23.7752 28.0963 30.6812 23.7752 26.07 30.6812 33.2648 26.07 28.3694 33.2648 35.8454 28.3694 30.6696 35.8454 38.4241 30.6696 32.9569 38.4241 41.003 32.9569 35.2359 41.003 43.5685 35.2359 37.5791 43.5685 46.1395 37.5791 39.9538 46.1395 48.8146 39.9538 42.4384 48.8146 51.5261 42.4384 44.8675 51.5261 54.3408 44.8675 47.2298 54.3408 57.0349 47.2298 49.4931 57.0349 59.6151 49.4931 51.7201 59.6151 62.0479 51.7201 53.9155 62.0479 64.4109 53.9155 56.0599 64.4109 66.7237 56.0599 58.1475 66.7237 68.9743 58.1475 60.1748 68.9743 71.1476 60.1748 62.1336 71.1476 73.2257 62.1336 64.0114 73.2257 75.1874 64.0114 65.7927 75.1874 77.0077 65.7927 67.4584 77.0077 78.6582 67.4584 68.9861 78.6582 80.1078 68.9861 70.3509 80.1078 81.3265 70.3509 71.5268 81.3265 82.2908 71.5268 72.4897 82.2908 82.9917 72.4897 73.2214 82.9917 83.4427 73.2214 73.7155 83.4427 83.6825 73.7155 73.9847 83.6825 83.772 73.9847 74.0738 83.772 83.7931 74.0738 74.0812 0 1.75574 0 1.44198 1.75574 3.68367 1.44198 2.97125 3.68367 5.77333 2.97125 4.60412 5.77333 7.93967 4.60412 6.34021 7.93967 10.1542 6.34021 8.15437 10.1542 12.3971 8.15437 10.0255 12.3971 14.6576 10.0255 11.9377 14.6576 16.9292 11.9377 13.8817 16.9292 19.2072 13.8817 15.8479 19.2072 21.4889 15.8479 17.8287 21.4889 23.7752 17.8287 19.8123 23.7752 26.07 19.8123 21.8014 26.07 28.3694 21.8014 23.8506 28.3694 30.6696 23.8506 25.9065 30.6696 32.9569 25.9065 27.9512 32.9569 35.2359 27.9512 30.0088 35.2359 37.5791 30.0088 32.1209 37.5791 39.9538 32.1209 34.2459 39.9538 42.4384 34.2459 36.3521 42.4384 44.8675 36.3521 38.3922 44.8675 47.2298 38.3922 40.3996 47.2298 49.4931 40.3996 42.3826 49.4931 51.7201 42.3826 44.3418 51.7201 53.9155 44.3418 46.2775 53.9155 56.0599 46.2775 48.1805 56.0599 58.1475 48.1805 50.0389 58.1475 60.1748 50.0389 51.8457 60.1748 62.1336 51.8457 53.5945 62.1336 64.0114 53.5945 55.277 64.0114 65.7927 55.277 56.8826 65.7927 67.4584 56.8826 58.3979 67.4584 68.9861 58.3979 59.8066 68.9861 70.3509 59.8066 61.0886 70.3509 71.5268 61.0886 62.2197 71.5268 72.4897 62.2197 63.1714 72.4897 73.2214 63.1714 63.9123 73.2214 73.7155 63.9123 64.4149 73.7155 73.9847 64.4149 64.671 73.9847 74.0738 64.671 64.7182 74.0738 74.0812 64.7182 64.6703 0 1.44198 0 1.16504 1.44198 2.97125 1.16504 2.37537 2.97125 4.60412 2.37537 3.6585 4.60412 6.34021 3.6585 5.02629 6.34021 8.15437 5.02629 6.47516 8.15437 10.0255 6.47516 7.99208 10.0255 11.9377 7.99208 9.56035 11.9377 13.8817 9.56035 11.1709 13.8817 15.8479 11.1709 12.8426 15.8479 17.8287 12.8426 14.5432 17.8287 19.8123 14.5432 16.2563 19.8123 21.8014 16.2563 17.9934 21.8014 23.8506 17.9934 19.7796 23.8506 25.9065 19.7796 21.5675 25.9065 27.9512 21.5675 23.3576 27.9512 30.0088 23.3576 25.1519 30.0088 32.1209 25.1519 26.9253 32.1209 34.2459 26.9253 28.7052 34.2459 36.3521 28.7052 30.478 36.3521 38.3922 30.478 32.2314 38.3922 40.3996 32.2314 33.9618 40.3996 42.3826 33.9618 35.6729 42.3826 44.3418 35.6729 37.3671 44.3418 46.2775 37.3671 39.0418 46.2775 48.1805 39.0418 40.6912 48.1805 50.0389 40.6912 42.3075 50.0389 51.8457 42.3075 43.8834 51.8457 53.5945 43.8834 45.4133 53.5945 55.277 45.4133 46.892 55.277 56.8826 46.892 48.3135 56.8826 58.3979 48.3135 49.6708 58.3979 59.8066 49.6708 50.9541 59.8066 61.0886 50.9541 52.1497 61.0886 62.2197 52.1497 53.237 62.2197 63.1714 53.237 54.1842 63.1714 63.9123 54.1842 54.9472 63.9123 64.4149 54.9472 55.4744 64.4149 64.671 55.4744 55.7287 64.671 64.7182 55.7287 55.7284 64.7182 64.6703 55.7284 55.5939 0 1.16504 0 0.918351 1.16504 2.37537 0.918351 1.86236 2.37537 3.6585 1.86236 2.85975 3.6585 5.02629 2.85975 3.91509 5.02629 6.47516 3.91509 5.04217 6.47516 7.99208 5.04217 6.23978 7.99208 9.56035 6.23978 7.50235 9.56035 11.1709 7.50235 8.82352 11.1709 12.8426 8.82352 10.2113 12.8426 14.5432 10.2113 11.6287 14.5432 16.2563 11.6287 13.0687 16.2563 17.9934 13.0687 14.5279 17.9934 19.7796 14.5279 15.9907 19.7796 21.5675 15.9907 17.4735 21.5675 23.3576 17.4735 18.969 23.3576 25.1519 18.969 20.4649 25.1519 26.9253 20.4649 21.9577 26.9253 28.7052 21.9577 23.444 28.7052 30.478 23.444 24.9237 30.478 32.2314 24.9237 26.3925 32.2314 33.9618 26.3925 27.8465 33.9618 35.6729 27.8465 29.2851 35.6729 37.3671 29.2851 30.7092 37.3671 39.0418 30.7092 32.1172 39.0418 40.6912 32.1172 33.505 40.6912 42.3075 33.505 34.8671 42.3075 43.8834 34.8671 36.1986 43.8834 45.4133 36.1986 37.4955 45.4133 46.892 37.4955 38.7556 46.892 48.3135 38.7556 39.9771 48.3135 49.6708 39.9771 41.159 49.6708 50.9541 41.159 42.2992 50.9541 52.1497 42.2992 43.3925 52.1497 53.237 43.3925 44.4262 53.237 54.1842 44.4262 45.373 54.1842 54.9472 45.373 46.1828 54.9472 55.4744 46.1828 46.7801 55.4744 55.7287 46.7801 47.0819 55.7287 55.7284 47.0819 47.0578 55.7284 55.5939 47.0578 46.818 0 0.918351 0 0.69767 0.918351 1.86236 0.69767 1.40634 1.86236 2.85975 1.40634 2.14917 2.85975 3.91509 2.14917 2.93779 3.91509 5.04217 2.93779 3.79283 5.04217 6.23978 3.79283 4.71585 6.23978 7.50235 4.71585 5.70418 7.50235 8.82352 5.70418 6.74556 8.82352 10.2113 6.74556 7.83005 10.2113 11.6287 7.83005 8.9509 11.6287 13.0687 8.9509 10.0978 13.0687 14.5279 10.0978 11.2613 14.5279 15.9907 11.2613 12.4389 15.9907 17.4735 12.4389 13.6293 17.4735 18.969 13.6293 14.8304 18.969 20.4649 14.8304 16.0368 20.4649 21.9577 16.0368 17.2421 21.9577 23.444 17.2421 18.4416 23.444 24.9237 18.4416 19.6332 24.9237 26.3925 19.6332 20.8158 26.3925 27.8465 20.8158 21.9878 27.8465 29.2851 21.9878 23.1482 29.2851 30.7092 23.1482 24.2964 30.7092 32.1172 24.2964 25.4311 32.1172 33.505 25.4311 26.5493 33.505 34.8671 26.5493 27.6476 34.8671 36.1986 27.6476 28.7228 36.1986 37.4955 28.7228 29.7732 37.4955 38.7556 29.7732 30.7986 38.7556 39.9771 30.7986 31.8008 39.9771 41.159 31.8008 32.7835 41.159 42.2992 32.7835 33.7515 42.2992 43.3925 33.7515 34.709 43.3925 44.4262 34.709 35.6561 44.4262 45.373 35.6561 36.5807 45.373 46.1828 36.5807 37.4441 46.1828 46.7801 37.4441 38.159 46.7801 47.0819 38.159 38.5877 47.0819 47.0578 38.5877 38.6003 47.0578 46.818 38.6003 38.262 0 0.69767 0 0.500026 0.69767 1.40634 0.500026 1.00277 1.40634 2.14917 1.00277 1.52993 2.14917 2.93779 1.52993 2.09751 2.93779 3.79283 2.09751 2.71397 3.79283 4.71585 2.71397 3.38294 4.71585 5.70418 3.38294 4.10175 5.70418 6.74556 4.10175 4.86402 6.74556 7.83005 4.86402 5.66357 7.83005 8.9509 5.66357 6.49483 8.9509 10.0978 6.49483 7.35117 10.0978 11.2613 7.35117 8.22618 11.2613 12.4389 8.22618 9.11476 12.4389 13.6293 9.11476 10.0136 13.6293 14.8304 10.0136 10.92 14.8304 16.0368 10.92 11.8305 16.0368 17.2421 11.8305 12.741 17.2421 18.4416 12.741 13.6476 18.4416 19.6332 13.6476 14.5479 19.6332 20.8158 14.5479 15.441 20.8158 21.9878 15.441 16.3259 21.9878 23.1482 16.3259 17.202 23.1482 24.2964 17.202 18.0685 24.2964 25.4311 18.0685 18.924 25.4311 26.5493 18.924 19.7666 26.5493 27.6476 19.7666 20.5941 27.6476 28.7228 20.5941 21.4049 28.7228 29.7732 21.4049 22.1984 29.7732 30.7986 22.1984 22.9759 30.7986 31.8008 22.9759 23.7409 31.8008 32.7835 23.7409 24.4994 32.7835 33.7515 24.4994 25.2602 33.7515 34.709 25.2602 26.0347 34.709 35.6561 26.0347 26.8353 35.6561 36.5807 26.8353 27.6719 36.5807 37.4441 27.6719 28.5374 37.4441 38.159 28.5374 29.3776 38.159 38.5877 29.3776 30.0151 38.5877 38.6003 30.0151 30.1832 38.6003 38.262 30.1832 29.7905 0 0.500026 0 0.32224 0.500026 1.00277 0.32224 0.644938 1.00277 1.52993 0.644938 0.983979 1.52993 2.09751 0.983979 1.34993 2.09751 2.71397 1.34993 1.74845 2.71397 3.38294 1.74845 2.18174 3.38294 4.10175 2.18174 2.64926 4.10175 4.86402 2.64926 3.14821 4.86402 5.66357 3.14821 3.67467 5.66357 6.49483 3.67467 4.22459 6.49483 7.35117 4.22459 4.79367 7.35117 8.22618 4.79367 5.37751 8.22618 9.11476 5.37751 5.97218 9.11476 10.0136 5.97218 6.57457 10.0136 10.92 6.57457 7.18218 10.92 11.8305 7.18218 7.79251 11.8305 12.741 7.79251 8.4029 12.741 13.6476 8.4029 9.0109 13.6476 14.5479 9.0109 9.61477 14.5479 15.441 9.61477 10.2136 15.441 16.3259 10.2136 10.8067 16.3259 17.202 10.8067 11.3936 17.202 18.0685 11.3936 11.9737 18.0685 18.924 11.9737 12.546 18.924 19.7666 12.546 13.1092 19.7666 20.5941 13.1092 13.662 20.5941 21.4049 13.662 14.2038 21.4049 22.1984 14.2038 14.7345 22.1984 22.9759 14.7345 15.2557 22.9759 23.7409 15.2557 15.7707 23.7409 24.4994 15.7707 16.2853 24.4994 25.2602 16.2853 16.808 25.2602 26.0347 16.808 17.3515 26.0347 26.8353 17.3515 17.9333 26.8353 27.6719 17.9333 18.5773 27.6719 28.5374 18.5773 19.3126 28.5374 29.3776 19.3126 20.1508 29.3776 30.0151 20.1508 21.0305 30.0151 30.1832 21.0305 21.4918 30.1832 29.7905 21.4918 21.1819 0 0.32224 0 0.157888 0.32224 0.644938 0.157888 0.315621 0.644938 0.983979 0.315621 0.481199 0.983979 1.34993 0.481199 0.660183 1.34993 1.74845 0.660183 0.855541 1.74845 2.18174 0.855541 1.06845 2.18174 2.64926 1.06845 1.29881 2.64926 3.14821 1.29881 1.54547 3.14821 3.67467 1.54547 1.80668 3.67467 4.22459 1.80668 2.08037 4.22459 4.79367 2.08037 2.36435 4.79367 5.37751 2.36435 2.65638 5.37751 5.97218 2.65638 2.95437 5.97218 6.57457 2.95437 3.25655 6.57457 7.18218 3.25655 3.56147 7.18218 7.79251 3.56147 3.86775 7.79251 8.4029 3.86775 4.17406 8.4029 9.0109 4.17406 4.47922 9.0109 9.61477 4.47922 4.78232 9.61477 10.2136 4.78232 5.08283 10.2136 10.8067 5.08283 5.3804 10.8067 11.3936 5.3804 5.67474 11.3936 11.9737 5.67474 5.96549 11.9737 12.546 5.96549 6.25213 12.546 13.1092 6.25213 6.53405 13.1092 13.662 6.53405 6.81069 13.662 14.2038 6.81069 7.08171 14.2038 14.7345 7.08171 7.3473 14.7345 15.2557 7.3473 7.60839 15.2557 15.7707 7.60839 7.86694 15.7707 16.2853 7.86694 8.12628 16.2853 16.808 8.12628 8.39154 16.808 17.3515 8.39154 8.67054 17.3515 17.9333 8.67054 8.97524 17.9333 18.5773 8.97524 9.3249 18.5773 19.3126 9.3249 9.7518 19.3126 20.1508 9.7518 10.3134 20.1508 21.0305 10.3134 11.0615 21.0305 21.4918 11.0615 11.9521 21.4918 21.1819 11.9521 11.6577 0 0.157888 0 2.63669e-12 0.157888 0.315621 2.63669e-12 8.2915e-12 0.315621 0.481199 8.2915e-12 1.12605e-11 0.481199 0.660183 1.12605e-11 1.68913e-11 0.660183 0.855541 1.68913e-11 2.05137e-11 0.855541 1.06845 2.05137e-11 2.86735e-11 1.06845 1.29881 2.86735e-11 3.16409e-11 1.29881 1.54547 3.16409e-11 3.19759e-11 1.54547 1.80668 3.19759e-11 2.92584e-11 1.80668 2.08037 2.92584e-11 2.63679e-11 2.08037 2.36435 2.63679e-11 2.25883e-11 2.36435 2.65638 2.25883e-11 2.26475e-11 2.65638 2.95437 2.26475e-11 2.06766e-11 2.95437 3.25655 2.06766e-11 1.93961e-11 3.25655 3.56147 1.93961e-11 1.78959e-11 3.56147 3.86775 1.78959e-11 1.29701e-11 3.86775 4.17406 1.29701e-11 9.49817e-12 4.17406 4.47922 9.49817e-12 8.09696e-12 4.47922 4.78232 8.09696e-12 3.10808e-12 4.78232 5.08283 3.10808e-12 -1.9429e-12 5.08283 5.3804 -1.9429e-12 -4.03097e-12 5.3804 5.67474 -4.03097e-12 -5.41713e-12 5.67474 5.96549 -5.41713e-12 -4.80166e-12 5.96549 6.25213 -4.80166e-12 -5.66827e-12 6.25213 6.53405 -5.66827e-12 -8.85816e-12 6.53405 6.81069 -8.85816e-12 -1.29784e-11 6.81069 7.08171 -1.29784e-11 -1.58876e-11 7.08171 7.3473 -1.58876e-11 -2.00391e-11 7.3473 7.60839 -2.00391e-11 -1.98145e-11 7.60839 7.86694 -1.98145e-11 -1.58223e-11 7.86694 8.12628 -1.58223e-11 -1.23005e-11 8.12628 8.39154 -1.23005e-11 -5.88659e-12 8.39154 8.67054 -5.88659e-12 2.07132e-14 8.67054 8.97524 2.07132e-14 6.17067e-12 8.97524 9.3249 6.17067e-12 1.37711e-11 9.3249 9.7518 1.37711e-11 2.2138e-11 9.7518 10.3134 2.2138e-11 2.32706e-11 10.3134 11.0615 2.32706e-11 2.17165e-11 11.0615 11.9521 2.17165e-11 1.84163e-11 11.9521 11.6577 1.84163e-11 1.77036e-11 0 2.63669e-12 0 -0.157888 2.63669e-12 8.2915e-12 -0.157888 -0.315621 8.2915e-12 1.12605e-11 -0.315621 -0.481199 1.12605e-11 1.68913e-11 -0.481199 -0.660183 1.68913e-11 2.05137e-11 -0.660183 -0.855541 2.05137e-11 2.86735e-11 -0.855541 -1.06845 2.86735e-11 3.16409e-11 -1.06845 -1.29881 3.16409e-11 3.19759e-11 -1.29881 -1.54547 3.19759e-11 2.92584e-11 -1.54547 -1.80668 2.92584e-11 2.63679e-11 -1.80668 -2.08037 2.63679e-11 2.25883e-11 -2.08037 -2.36435 2.25883e-11 2.26475e-11 -2.36435 -2.65638 2.26475e-11 2.06766e-11 -2.65638 -2.95437 2.06766e-11 1.93961e-11 -2.95437 -3.25655 1.93961e-11 1.78959e-11 -3.25655 -3.56147 1.78959e-11 1.29701e-11 -3.56147 -3.86775 1.29701e-11 9.49817e-12 -3.86775 -4.17406 9.49817e-12 8.09696e-12 -4.17406 -4.47922 8.09696e-12 3.10808e-12 -4.47922 -4.78232 3.10808e-12 -1.9429e-12 -4.78232 -5.08283 -1.9429e-12 -4.03097e-12 -5.08283 -5.3804 -4.03097e-12 -5.41713e-12 -5.3804 -5.67474 -5.41713e-12 -4.80166e-12 -5.67474 -5.96549 -4.80166e-12 -5.66827e-12 -5.96549 -6.25213 -5.66827e-12 -8.85816e-12 -6.25213 -6.53405 -8.85816e-12 -1.29784e-11 -6.53405 -6.81069 -1.29784e-11 -1.58876e-11 -6.81069 -7.08171 -1.58876e-11 -2.00391e-11 -7.08171 -7.3473 -2.00391e-11 -1.98145e-11 -7.3473 -7.60839 -1.98145e-11 -1.58223e-11 -7.60839 -7.86694 -1.58223e-11 -1.23005e-11 -7.86694 -8.12628 -1.23005e-11 -5.88659e-12 -8.12628 -8.39154 -5.88659e-12 2.07132e-14 -8.39154 -8.67054 2.07132e-14 6.17067e-12 -8.67054 -8.97524 6.17067e-12 1.37711e-11 -8.97524 -9.3249 1.37711e-11 2.2138e-11 -9.3249 -9.7518 2.2138e-11 2.32706e-11 -9.7518 -10.3134 2.32706e-11 2.17165e-11 -10.3134 -11.0615 2.17165e-11 1.84163e-11 -11.0615 -11.9521 1.84163e-11 1.77036e-11 -11.9521 -11.6577 0 -0.157888 0 -0.32224 -0.157888 -0.315621 -0.32224 -0.644938 -0.315621 -0.481199 -0.644938 -0.983979 -0.481199 -0.660183 -0.983979 -1.34993 -0.660183 -0.855541 -1.34993 -1.74845 -0.855541 -1.06845 -1.74845 -2.18174 -1.06845 -1.29881 -2.18174 -2.64926 -1.29881 -1.54547 -2.64926 -3.14821 -1.54547 -1.80668 -3.14821 -3.67467 -1.80668 -2.08037 -3.67467 -4.22459 -2.08037 -2.36435 -4.22459 -4.79367 -2.36435 -2.65638 -4.79367 -5.37751 -2.65638 -2.95437 -5.37751 -5.97218 -2.95437 -3.25655 -5.97218 -6.57457 -3.25655 -3.56147 -6.57457 -7.18218 -3.56147 -3.86775 -7.18218 -7.79251 -3.86775 -4.17406 -7.79251 -8.4029 -4.17406 -4.47922 -8.4029 -9.0109 -4.47922 -4.78232 -9.0109 -9.61477 -4.78232 -5.08283 -9.61477 -10.2136 -5.08283 -5.3804 -10.2136 -10.8067 -5.3804 -5.67474 -10.8067 -11.3936 -5.67474 -5.96549 -11.3936 -11.9737 -5.96549 -6.25213 -11.9737 -12.546 -6.25213 -6.53405 -12.546 -13.1092 -6.53405 -6.81069 -13.1092 -13.662 -6.81069 -7.08171 -13.662 -14.2038 -7.08171 -7.3473 -14.2038 -14.7345 -7.3473 -7.60839 -14.7345 -15.2557 -7.60839 -7.86694 -15.2557 -15.7707 -7.86694 -8.12628 -15.7707 -16.2853 -8.12628 -8.39154 -16.2853 -16.808 -8.39154 -8.67054 -16.808 -17.3515 -8.67054 -8.97524 -17.3515 -17.9333 -8.97524 -9.3249 -17.9333 -18.5773 -9.3249 -9.7518 -18.5773 -19.3126 -9.7518 -10.3134 -19.3126 -20.1508 -10.3134 -11.0615 -20.1508 -21.0305 -11.0615 -11.9521 -21.0305 -21.4918 -11.9521 -11.6577 -21.4918 -21.1819 0 -0.32224 0 -0.500026 -0.32224 -0.644938 -0.500026 -1.00277 -0.644938 -0.983979 -1.00277 -1.52993 -0.983979 -1.34993 -1.52993 -2.09751 -1.34993 -1.74845 -2.09751 -2.71397 -1.74845 -2.18174 -2.71397 -3.38294 -2.18174 -2.64926 -3.38294 -4.10175 -2.64926 -3.14821 -4.10175 -4.86402 -3.14821 -3.67467 -4.86402 -5.66357 -3.67467 -4.22459 -5.66357 -6.49483 -4.22459 -4.79367 -6.49483 -7.35117 -4.79367 -5.37751 -7.35117 -8.22618 -5.37751 -5.97218 -8.22618 -9.11476 -5.97218 -6.57457 -9.11476 -10.0136 -6.57457 -7.18218 -10.0136 -10.92 -7.18218 -7.79251 -10.92 -11.8305 -7.79251 -8.4029 -11.8305 -12.741 -8.4029 -9.0109 -12.741 -13.6476 -9.0109 -9.61477 -13.6476 -14.5479 -9.61477 -10.2136 -14.5479 -15.441 -10.2136 -10.8067 -15.441 -16.3259 -10.8067 -11.3936 -16.3259 -17.202 -11.3936 -11.9737 -17.202 -18.0685 -11.9737 -12.546 -18.0685 -18.924 -12.546 -13.1092 -18.924 -19.7666 -13.1092 -13.662 -19.7666 -20.5941 -13.662 -14.2038 -20.5941 -21.4049 -14.2038 -14.7345 -21.4049 -22.1984 -14.7345 -15.2557 -22.1984 -22.9759 -15.2557 -15.7707 -22.9759 -23.7409 -15.7707 -16.2853 -23.7409 -24.4994 -16.2853 -16.808 -24.4994 -25.2602 -16.808 -17.3515 -25.2602 -26.0347 -17.3515 -17.9333 -26.0347 -26.8353 -17.9333 -18.5773 -26.8353 -27.6719 -18.5773 -19.3126 -27.6719 -28.5374 -19.3126 -20.1508 -28.5374 -29.3776 -20.1508 -21.0305 -29.3776 -30.0151 -21.0305 -21.4918 -30.0151 -30.1832 -21.4918 -21.1819 -30.1832 -29.7905 0 -0.500026 0 -0.69767 -0.500026 -1.00277 -0.69767 -1.40634 -1.00277 -1.52993 -1.40634 -2.14917 -1.52993 -2.09751 -2.14917 -2.93779 -2.09751 -2.71397 -2.93779 -3.79283 -2.71397 -3.38294 -3.79283 -4.71585 -3.38294 -4.10175 -4.71585 -5.70418 -4.10175 -4.86402 -5.70418 -6.74556 -4.86402 -5.66357 -6.74556 -7.83005 -5.66357 -6.49483 -7.83005 -8.9509 -6.49483 -7.35117 -8.9509 -10.0978 -7.35117 -8.22618 -10.0978 -11.2613 -8.22618 -9.11476 -11.2613 -12.4389 -9.11476 -10.0136 -12.4389 -13.6293 -10.0136 -10.92 -13.6293 -14.8304 -10.92 -11.8305 -14.8304 -16.0368 -11.8305 -12.741 -16.0368 -17.2421 -12.741 -13.6476 -17.2421 -18.4416 -13.6476 -14.5479 -18.4416 -19.6332 -14.5479 -15.441 -19.6332 -20.8158 -15.441 -16.3259 -20.8158 -21.9878 -16.3259 -17.202 -21.9878 -23.1482 -17.202 -18.0685 -23.1482 -24.2964 -18.0685 -18.924 -24.2964 -25.4311 -18.924 -19.7666 -25.4311 -26.5493 -19.7666 -20.5941 -26.5493 -27.6476 -20.5941 -21.4049 -27.6476 -28.7228 -21.4049 -22.1984 -28.7228 -29.7732 -22.1984 -22.9759 -29.7732 -30.7986 -22.9759 -23.7409 -30.7986 -31.8008 -23.7409 -24.4994 -31.8008 -32.7835 -24.4994 -25.2602 -32.7835 -33.7515 -25.2602 -26.0347 -33.7515 -34.709 -26.0347 -26.8353 -34.709 -35.6561 -26.8353 -27.6719 -35.6561 -36.5807 -27.6719 -28.5374 -36.5807 -37.4441 -28.5374 -29.3776 -37.4441 -38.159 -29.3776 -30.0151 -38.159 -38.5877 -30.0151 -30.1832 -38.5877 -38.6003 -30.1832 -29.7905 -38.6003 -38.262 0 -0.69767 0 -0.918351 -0.69767 -1.40634 -0.918351 -1.86236 -1.40634 -2.14917 -1.86236 -2.85975 -2.14917 -2.93779 -2.85975 -3.91509 -2.93779 -3.79283 -3.91509 -5.04217 -3.79283 -4.71585 -5.04217 -6.23978 -4.71585 -5.70418 -6.23978 -7.50235 -5.70418 -6.74556 -7.50235 -8.82352 -6.74556 -7.83005 -8.82352 -10.2113 -7.83005 -8.9509 -10.2113 -11.6287 -8.9509 -10.0978 -11.6287 -13.0687 -10.0978 -11.2613 -13.0687 -14.5279 -11.2613 -12.4389 -14.5279 -15.9907 -12.4389 -13.6293 -15.9907 -17.4735 -13.6293 -14.8304 -17.4735 -18.969 -14.8304 -16.0368 -18.969 -20.4649 -16.0368 -17.2421 -20.4649 -21.9577 -17.2421 -18.4416 -21.9577 -23.444 -18.4416 -19.6332 -23.444 -24.9237 -19.6332 -20.8158 -24.9237 -26.3925 -20.8158 -21.9878 -26.3925 -27.8465 -21.9878 -23.1482 -27.8465 -29.2851 -23.1482 -24.2964 -29.2851 -30.7092 -24.2964 -25.4311 -30.7092 -32.1172 -25.4311 -26.5493 -32.1172 -33.505 -26.5493 -27.6476 -33.505 -34.8671 -27.6476 -28.7228 -34.8671 -36.1986 -28.7228 -29.7732 -36.1986 -37.4955 -29.7732 -30.7986 -37.4955 -38.7556 -30.7986 -31.8008 -38.7556 -39.9771 -31.8008 -32.7835 -39.9771 -41.159 -32.7835 -