# vtk DataFile Version 3.0
#This file was generated by the deal.II library on 2015/9/2 at 7:53:44
ASCII
DATASET UNSTRUCTURED_GRID

POINTS 18152 double
0 0 0
0.05 0 0
0 0.05 0
0.05 0.05 0
0.05 0 0
0.1 0 0
0.05 0.05 0
0.1 0.05 0
0.1 0 0
0.15 0 0
0.1 0.05 0
0.15 0.05 0
0.15 0 0
0.2 0 0
0.15 0.05 0
0.2 0.05 0
0.2 0 0
0.25 0 0
0.2 0.05 0
0.25 0.05 0
0.25 0 0
0.3 0 0
0.25 0.05 0
0.3 0.05 0
0.3 0 0
0.35 0 0
0.3 0.05 0
0.35 0.05 0
0.35 0 0
0.4 0 0
0.35 0.05 0
0.4 0.05 0
0.4 0 0
0.45 0 0
0.4 0.05 0
0.45 0.05 0
0.45 0 0
0.5 0 0
0.45 0.05 0
0.5 0.05 0
0.5 0 0
0.55 0 0
0.5 0.05 0
0.55 0.05 0
0.55 0 0
0.6 0 0
0.55 0.05 0
0.6 0.05 0
0.6 0 0
0.65 0 0
0.6 0.05 0
0.65 0.05 0
0.65 0 0
0.7 0 0
0.65 0.05 0
0.7 0.05 0
0.7 0 0
0.75 0 0
0.7 0.05 0
0.75 0.05 0
0.75 0 0
0.8 0 0
0.75 0.05 0
0.8 0.05 0
0.8 0 0
0.85 0 0
0.8 0.05 0
0.85 0.05 0
0.85 0 0
0.9 0 0
0.85 0.05 0
0.9 0.05 0
0.9 0 0
0.95 0 0
0.9 0.05 0
0.95 0.05 0
0.95 0 0
1 0 0
0.95 0.05 0
1 0.05 0
1 0 0
1.05 0 0
1 0.05 0
1.05 0.05 0
1.05 0 0
1.1 0 0
1.05 0.05 0
1.1 0.05 0
1.1 0 0
1.15 0 0
1.1 0.05 0
1.15 0.05 0
1.15 0 0
1.2 0 0
1.15 0.05 0
1.2 0.05 0
1.2 0 0
1.25 0 0
1.2 0.05 0
1.25 0.05 0
1.45 0 0
1.5 0 0
1.45 0.05 0
1.5 0.05 0
1.5 0 0
1.55 0 0
1.5 0.05 0
1.55 0.05 0
1.55 0 0
1.6 0 0
1.55 0.05 0
1.6 0.05 0
1.6 0 0
1.65 0 0
1.6 0.05 0
1.65 0.05 0
1.65 0 0
1.7 0 0
1.65 0.05 0
1.7 0.05 0
1.7 0 0
1.75 0 0
1.7 0.05 0
1.75 0.05 0
1.75 0 0
1.8 0 0
1.75 0.05 0
1.8 0.05 0
1.8 0 0
1.85 0 0
1.8 0.05 0
1.85 0.05 0
1.85 0 0
1.9 0 0
1.85 0.05 0
1.9 0.05 0
1.9 0 0
1.95 0 0
1.9 0.05 0
1.95 0.05 0
1.95 0 0
2 0 0
1.95 0.05 0
2 0.05 0
0 0.05 0
0.05 0.05 0
0 0.1 0
0.05 0.1 0
0.05 0.05 0
0.1 0.05 0
0.05 0.1 0
0.1 0.1 0
0.1 0.05 0
0.15 0.05 0
0.1 0.1 0
0.15 0.1 0
0.15 0.05 0
0.2 0.05 0
0.15 0.1 0
0.2 0.1 0
0.2 0.05 0
0.25 0.05 0
0.2 0.1 0
0.25 0.1 0
0.25 0.05 0
0.3 0.05 0
0.25 0.1 0
0.3 0.1 0
0.3 0.05 0
0.35 0.05 0
0.3 0.1 0
0.35 0.1 0
0.35 0.05 0
0.4 0.05 0
0.35 0.1 0
0.4 0.1 0
1.15 0.05 0
1.2 0.05 0
1.15 0.1 0
1.2 0.1 0
1.2 0.05 0
1.25 0.05 0
1.2 0.1 0
1.25 0.1 0
1.25 0.05 0
1.3 0.05 0
1.25 0.1 0
1.3 0.1 0
1.55 0.05 0
1.6 0.05 0
1.55 0.1 0
1.6 0.1 0
1.6 0.05 0
1.65 0.05 0
1.6 0.1 0
1.65 0.1 0
1.65 0.05 0
1.7 0.05 0
1.65 0.1 0
1.7 0.1 0
1.7 0.05 0
1.75 0.05 0
1.7 0.1 0
1.75 0.1 0
1.75 0.05 0
1.8 0.05 0
1.75 0.1 0
1.8 0.1 0
1.8 0.05 0
1.85 0.05 0
1.8 0.1 0
1.85 0.1 0
1.85 0.05 0
1.9 0.05 0
1.85 0.1 0
1.9 0.1 0
1.9 0.05 0
1.95 0.05 0
1.9 0.1 0
1.95 0.1 0
1.95 0.05 0
2 0.05 0
1.95 0.1 0
2 0.1 0
0.15 0.1 0
0.2 0.1 0
0.15 0.15 0
0.2 0.15 0
0.2 0.1 0
0.25 0.1 0
0.2 0.15 0
0.25 0.15 0
0.25 0.1 0
0.3 0.1 0
0.25 0.15 0
0.3 0.15 0
0.3 0.1 0
0.35 0.1 0
0.3 0.15 0
0.35 0.15 0
1.65 0.1 0
1.7 0.1 0
1.65 0.15 0
1.7 0.15 0
1.7 0.1 0
1.75 0.1 0
1.7 0.15 0
1.75 0.15 0
1.75 0.1 0
1.8 0.1 0
1.75 0.15 0
1.8 0.15 0
1.8 0.1 0
1.85 0.1 0
1.8 0.15 0
1.85 0.15 0
1.85 0.1 0
1.9 0.1 0
1.85 0.15 0
1.9 0.15 0
1.9 0.1 0
1.95 0.1 0
1.9 0.15 0
1.95 0.15 0
1.95 0.1 0
2 0.1 0
1.95 0.15 0
2 0.15 0
0.25 0.15 0
0.3 0.15 0
0.25 0.2 0
0.3 0.2 0
0.3 0.15 0
0.35 0.15 0
0.3 0.2 0
0.35 0.2 0
0.35 0.15 0
0.4 0.15 0
0.35 0.2 0
0.4 0.2 0
0.65 0.15 0
0.7 0.15 0
0.65 0.2 0
0.7 0.2 0
0.7 0.15 0
0.75 0.15 0
0.7 0.2 0
0.75 0.2 0
0.75 0.15 0
0.8 0.15 0
0.75 0.2 0
0.8 0.2 0
0.8 0.15 0
0.85 0.15 0
0.8 0.2 0
0.85 0.2 0
0.85 0.15 0
0.9 0.15 0
0.85 0.2 0
0.9 0.2 0
0.9 0.15 0
0.95 0.15 0
0.9 0.2 0
0.95 0.2 0
0.95 0.15 0
1 0.15 0
0.95 0.2 0
1 0.2 0
1 0.15 0
1.05 0.15 0
1 0.2 0
1.05 0.2 0
1.75 0.15 0
1.8 0.15 0
1.75 0.2 0
1.8 0.2 0
1.8 0.15 0
1.85 0.15 0
1.8 0.2 0
1.85 0.2 0
1.85 0.15 0
1.9 0.15 0
1.85 0.2 0
1.9 0.2 0
1.9 0.15 0
1.95 0.15 0
1.9 0.2 0
1.95 0.2 0
1.95 0.15 0
2 0.15 0
1.95 0.2 0
2 0.2 0
0.35 0.2 0
0.4 0.2 0
0.35 0.25 0
0.4 0.25 0
0.4 0.2 0
0.45 0.2 0
0.4 0.25 0
0.45 0.25 0
0.8 0.2 0
0.85 0.2 0
0.8 0.25 0
0.85 0.25 0
0.85 0.2 0
0.9 0.2 0
0.85 0.25 0
0.9 0.25 0
0.9 0.2 0
0.95 0.2 0
0.9 0.25 0
0.95 0.25 0
0.95 0.2 0
1 0.2 0
0.95 0.25 0
1 0.25 0
1.8 0.2 0
1.85 0.2 0
1.8 0.25 0
1.85 0.25 0
1.85 0.2 0
1.9 0.2 0
1.85 0.25 0
1.9 0.25 0
1.9 0.2 0
1.95 0.2 0
1.9 0.25 0
1.95 0.25 0
1.95 0.2 0
2 0.2 0
1.95 0.25 0
2 0.25 0
0 0.25 0
0.05 0.25 0
0 0.3 0
0.05 0.3 0
0.05 0.25 0
0.1 0.25 0
0.05 0.3 0
0.1 0.3 0
0.1 0.25 0
0.15 0.25 0
0.1 0.3 0
0.15 0.3 0
0.45 0.25 0
0.5 0.25 0
0.45 0.3 0
0.5 0.3 0
0.5 0.25 0
0.55 0.25 0
0.5 0.3 0
0.55 0.3 0
0.9 0.25 0
0.95 0.25 0
0.9 0.3 0
0.95 0.3 0
0.95 0.25 0
1 0.25 0
0.95 0.3 0
1 0.3 0
1.25 0.25 0
1.3 0.25 0
1.25 0.3 0
1.3 0.3 0
1.3 0.25 0
1.35 0.25 0
1.3 0.3 0
1.35 0.3 0
1.9 0.25 0
1.95 0.25 0
1.9 0.3 0
1.95 0.3 0
1.95 0.25 0
2 0.25 0
1.95 0.3 0
2 0.3 0
0 0.3 0
0.05 0.3 0
0 0.35 0
0.05 0.35 0
0.05 0.3 0
0.1 0.3 0
0.05 0.35 0
0.1 0.35 0
0.1 0.3 0
0.15 0.3 0
0.1 0.35 0
0.15 0.35 0
0.15 0.3 0
0.2 0.3 0
0.15 0.35 0
0.2 0.35 0
0.2 0.3 0
0.25 0.3 0
0.2 0.35 0
0.25 0.35 0
0.6 0.3 0
0.65 0.3 0
0.6 0.35 0
0.65 0.35 0
1.2 0.3 0
1.25 0.3 0
1.2 0.35 0
1.25 0.35 0
1.25 0.3 0
1.3 0.3 0
1.25 0.35 0
1.3 0.35 0
1.3 0.3 0
1.35 0.3 0
1.3 0.35 0
1.35 0.35 0
1.35 0.3 0
1.4 0.3 0
1.35 0.35 0
1.4 0.35 0
0 0.35 0
0.05 0.35 0
0 0.4 0
0.05 0.4 0
0.05 0.35 0
0.1 0.35 0
0.05 0.4 0
0.1 0.4 0
0.1 0.35 0
0.15 0.35 0
0.1 0.4 0
0.15 0.4 0
0.15 0.35 0
0.2 0.35 0
0.15 0.4 0
0.2 0.4 0
0.2 0.35 0
0.25 0.35 0
0.2 0.4 0
0.25 0.4 0
0.25 0.35 0
0.3 0.35 0
0.25 0.4 0
0.3 0.4 0
0.3 0.35 0
0.35 0.35 0
0.3 0.4 0
0.35 0.4 0
0.7 0.35 0
0.75 0.35 0
0.7 0.4 0
0.75 0.4 0
0.75 0.35 0
0.8 0.35 0
0.75 0.4 0
0.8 0.4 0
1.2 0.35 0
1.25 0.35 0
1.2 0.4 0
1.25 0.4 0
1.25 0.35 0
1.3 0.35 0
1.25 0.4 0
1.3 0.4 0
1.3 0.35 0
1.35 0.35 0
1.3 0.4 0
1.35 0.4 0
1.35 0.35 0
1.4 0.35 0
1.35 0.4 0
1.4 0.4 0
1.4 0.35 0
1.45 0.35 0
1.4 0.4 0
1.45 0.4 0
1.45 0.35 0
1.5 0.35 0
1.45 0.4 0
1.5 0.4 0
0 0.4 0
0.05 0.4 0
0 0.45 0
0.05 0.45 0
0.05 0.4 0
0.1 0.4 0
0.05 0.45 0
0.1 0.45 0
0.1 0.4 0
0.15 0.4 0
0.1 0.45 0
0.15 0.45 0
0.15 0.4 0
0.2 0.4 0
0.15 0.45 0
0.2 0.45 0
0.2 0.4 0
0.25 0.4 0
0.2 0.45 0
0.25 0.45 0
0.25 0.4 0
0.3 0.4 0
0.25 0.45 0
0.3 0.45 0
0.3 0.4 0
0.35 0.4 0
0.3 0.45 0
0.35 0.45 0
0.35 0.4 0
0.4 0.4 0
0.35 0.45 0
0.4 0.45 0
0.4 0.4 0
0.45 0.4 0
0.4 0.45 0
0.45 0.45 0
0.75 0.4 0
0.8 0.4 0
0.75 0.45 0
0.8 0.45 0
0.8 0.4 0
0.85 0.4 0
0.8 0.45 0
0.85 0.45 0
0.85 0.4 0
0.9 0.4 0
0.85 0.45 0
0.9 0.45 0
1.15 0.4 0
1.2 0.4 0
1.15 0.45 0
1.2 0.45 0
1.2 0.4 0
1.25 0.4 0
1.2 0.45 0
1.25 0.45 0
1.25 0.4 0
1.3 0.4 0
1.25 0.45 0
1.3 0.45 0
1.3 0.4 0
1.35 0.4 0
1.3 0.45 0
1.35 0.45 0
1.35 0.4 0
1.4 0.4 0
1.35 0.45 0
1.4 0.45 0
1.4 0.4 0
1.45 0.4 0
1.4 0.45 0
1.45 0.45 0
1.45 0.4 0
1.5 0.4 0
1.45 0.45 0
1.5 0.45 0
1.5 0.4 0
1.55 0.4 0
1.5 0.45 0
1.55 0.45 0
1.55 0.4 0
1.6 0.4 0
1.55 0.45 0
1.6 0.45 0
1.85 0.4 0
1.9 0.4 0
1.85 0.45 0
1.9 0.45 0
0 0.45 0
0.05 0.45 0
0 0.5 0
0.05 0.5 0
0.05 0.45 0
0.1 0.45 0
0.05 0.5 0
0.1 0.5 0
0.1 0.45 0
0.15 0.45 0
0.1 0.5 0
0.15 0.5 0
0.15 0.45 0
0.2 0.45 0
0.15 0.5 0
0.2 0.5 0
0.2 0.45 0
0.25 0.45 0
0.2 0.5 0
0.25 0.5 0
0.25 0.45 0
0.3 0.45 0
0.25 0.5 0
0.3 0.5 0
0.3 0.45 0
0.35 0.45 0
0.3 0.5 0
0.35 0.5 0
0.35 0.45 0
0.4 0.45 0
0.35 0.5 0
0.4 0.5 0
0.4 0.45 0
0.45 0.45 0
0.4 0.5 0
0.45 0.5 0
0.45 0.45 0
0.5 0.45 0
0.45 0.5 0
0.5 0.5 0
0.5 0.45 0
0.55 0.45 0
0.5 0.5 0
0.55 0.5 0
0.8 0.45 0
0.85 0.45 0
0.8 0.5 0
0.85 0.5 0
0.85 0.45 0
0.9 0.45 0
0.85 0.5 0
0.9 0.5 0
0.9 0.45 0
0.95 0.45 0
0.9 0.5 0
0.95 0.5 0
0.95 0.45 0
1 0.45 0
0.95 0.5 0
1 0.5 0
1.15 0.45 0
1.2 0.45 0
1.15 0.5 0
1.2 0.5 0
1.2 0.45 0
1.25 0.45 0
1.2 0.5 0
1.25 0.5 0
1.25 0.45 0
1.3 0.45 0
1.25 0.5 0
1.3 0.5 0
1.3 0.45 0
1.35 0.45 0
1.3 0.5 0
1.35 0.5 0
1.35 0.45 0
1.4 0.45 0
1.35 0.5 0
1.4 0.5 0
1.4 0.45 0
1.45 0.45 0
1.4 0.5 0
1.45 0.5 0
1.45 0.45 0
1.5 0.45 0
1.45 0.5 0
1.5 0.5 0
1.5 0.45 0
1.55 0.45 0
1.5 0.5 0
1.55 0.5 0
1.55 0.45 0
1.6 0.45 0
1.55 0.5 0
1.6 0.5 0
1.6 0.45 0
1.65 0.45 0
1.6 0.5 0
1.65 0.5 0
1.9 0.45 0
1.95 0.45 0
1.9 0.5 0
1.95 0.5 0
1.95 0.45 0
2 0.45 0
1.95 0.5 0
2 0.5 0
0 0.5 0
0.05 0.5 0
0 0.55 0
0.05 0.55 0
0.05 0.5 0
0.1 0.5 0
0.05 0.55 0
0.1 0.55 0
0.1 0.5 0
0.15 0.5 0
0.1 0.55 0
0.15 0.55 0
0.15 0.5 0
0.2 0.5 0
0.15 0.55 0
0.2 0.55 0
0.2 0.5 0
0.25 0.5 0
0.2 0.55 0
0.25 0.55 0
0.25 0.5 0
0.3 0.5 0
0.25 0.55 0
0.3 0.55 0
0.3 0.5 0
0.35 0.5 0
0.3 0.55 0
0.35 0.55 0
0.35 0.5 0
0.4 0.5 0
0.35 0.55 0
0.4 0.55 0
0.4 0.5 0
0.45 0.5 0
0.4 0.55 0
0.45 0.55 0
0.45 0.5 0
0.5 0.5 0
0.45 0.55 0
0.5 0.55 0
0.5 0.5 0
0.55 0.5 0
0.5 0.55 0
0.55 0.55 0
0.8 0.5 0
0.85 0.5 0
0.8 0.55 0
0.85 0.55 0
0.85 0.5 0
0.9 0.5 0
0.85 0.55 0
0.9 0.55 0
0.9 0.5 0
0.95 0.5 0
0.9 0.55 0
0.95 0.55 0
0.95 0.5 0
1 0.5 0
0.95 0.55 0
1 0.55 0
1.15 0.5 0
1.2 0.5 0
1.15 0.55 0
1.2 0.55 0
1.2 0.5 0
1.25 0.5 0
1.2 0.55 0
1.25 0.55 0
1.25 0.5 0
1.3 0.5 0
1.25 0.55 0
1.3 0.55 0
1.3 0.5 0
1.35 0.5 0
1.3 0.55 0
1.35 0.55 0
1.35 0.5 0
1.4 0.5 0
1.35 0.55 0
1.4 0.55 0
1.4 0.5 0
1.45 0.5 0
1.4 0.55 0
1.45 0.55 0
1.45 0.5 0
1.5 0.5 0
1.45 0.55 0
1.5 0.55 0
1.5 0.5 0
1.55 0.5 0
1.5 0.55 0
1.55 0.55 0
1.55 0.5 0
1.6 0.5 0
1.55 0.55 0
1.6 0.55 0
1.6 0.5 0
1.65 0.5 0
1.6 0.55 0
1.65 0.55 0
1.9 0.5 0
1.95 0.5 0
1.9 0.55 0
1.95 0.55 0
1.95 0.5 0
2 0.5 0
1.95 0.55 0
2 0.55 0
0 0.55 0
0.05 0.55 0
0 0.6 0
0.05 0.6 0
0.05 0.55 0
0.1 0.55 0
0.05 0.6 0
0.1 0.6 0
0.1 0.55 0
0.15 0.55 0
0.1 0.6 0
0.15 0.6 0
0.15 0.55 0
0.2 0.55 0
0.15 0.6 0
0.2 0.6 0
0.2 0.55 0
0.25 0.55 0
0.2 0.6 0
0.25 0.6 0
0.25 0.55 0
0.3 0.55 0
0.25 0.6 0
0.3 0.6 0
0.3 0.55 0
0.35 0.55 0
0.3 0.6 0
0.35 0.6 0
0.35 0.55 0
0.4 0.55 0
0.35 0.6 0
0.4 0.6 0
0.4 0.55 0
0.45 0.55 0
0.4 0.6 0
0.45 0.6 0
0.75 0.55 0
0.8 0.55 0
0.75 0.6 0
0.8 0.6 0
0.8 0.55 0
0.85 0.55 0
0.8 0.6 0
0.85 0.6 0
0.85 0.55 0
0.9 0.55 0
0.85 0.6 0
0.9 0.6 0
1.15 0.55 0
1.2 0.55 0
1.15 0.6 0
1.2 0.6 0
1.2 0.55 0
1.25 0.55 0
1.2 0.6 0
1.25 0.6 0
1.25 0.55 0
1.3 0.55 0
1.25 0.6 0
1.3 0.6 0
1.3 0.55 0
1.35 0.55 0
1.3 0.6 0
1.35 0.6 0
1.35 0.55 0
1.4 0.55 0
1.35 0.6 0
1.4 0.6 0
1.4 0.55 0
1.45 0.55 0
1.4 0.6 0
1.45 0.6 0
1.45 0.55 0
1.5 0.55 0
1.45 0.6 0
1.5 0.6 0
1.5 0.55 0
1.55 0.55 0
1.5 0.6 0
1.55 0.6 0
1.55 0.55 0
1.6 0.55 0
1.55 0.6 0
1.6 0.6 0
1.85 0.55 0
1.9 0.55 0
1.85 0.6 0
1.9 0.6 0
0 0.6 0
0.05 0.6 0
0 0.65 0
0.05 0.65 0
0.05 0.6 0
0.1 0.6 0
0.05 0.65 0
0.1 0.65 0
0.1 0.6 0
0.15 0.6 0
[...]
POINT_DATA 18152
SCALARS x_displacement double 1
LOOKUP_TABLE default
0 1.33536 0 0.780275 1.33536 2.35036 0.780275 1.60558 2.35036 3.19984 1.60558 2.33683 3.19984 3.93195 2.33683 2.98815 3.93195 4.57764 2.98815 3.57393 4.57764 5.16956 3.57393 4.10858 5.16956 5.73947 4.10858 4.61156 5.73947 6.30863 4.61156 5.10293 6.30863 6.88046 5.10293 5.59219 6.88046 7.45239 5.59219 6.0794 7.45239 8.02477 6.0794 6.56819 8.02477 8.59549 6.56819 7.06177 8.59549 9.14702 7.06177 7.56618 9.14702 9.66565 7.56618 8.0764 9.66565 10.1611 8.0764 8.59698 10.1611 10.6534 8.59698 9.12381 10.6534 11.149 9.12381 9.65081 11.149 11.6474 9.65081 10.1779 11.6474 12.148 10.1779 10.7055 12.148 12.653 10.7055 11.2306 12.653 13.1812 11.2306 11.7426 13.1812 13.762 11.7426 12.2392 13.762 14.397 12.2392 12.7177 14.397 15.0125 12.7177 13.1771 15.0125 15.484 13.1771 13.5762 16.9791 17.4684 14.7109 15.0588 17.4684 17.8182 15.0588 15.5 17.8182 18.1331 15.5 15.859 18.1331 18.4025 15.859 16.144 18.4025 18.6084 16.144 16.3713 18.6084 18.7467 16.3713 16.5368 18.7467 18.8195 16.5368 16.6523 18.8195 18.8422 16.6523 16.7204 18.8422 18.8338 16.7204 16.7534 18.8338 18.8188 16.7534 16.764 18.8188 18.8132 16.764 16.7671 0 0.780275 0 0.534117 0.780275 1.60558 0.534117 1.09561 1.60558 2.33683 1.09561 1.66075 2.33683 2.98815 1.66075 2.19121 2.98815 3.57393 2.19121 2.68436 3.57393 4.10858 2.68436 3.1318 4.10858 4.61156 3.1318 3.52469 4.61156 5.10293 3.52469 3.90371 12.7177 13.1771 11.1456 11.4868 13.1771 13.5762 11.4868 11.7952 13.5762 13.9138 11.7952 12.0538 15.5 15.859 13.3925 13.7326 15.859 16.144 13.7326 14.0252 16.144 16.3713 14.0252 14.2507 16.3713 16.5368 14.2507 14.4517 16.5368 16.6523 14.4517 14.5869 16.6523 16.7204 14.5869 14.6775 16.7204 16.7534 14.6775 14.7254 16.7534 16.764 14.7254 14.741 16.764 16.7671 14.741 14.7455 1.66075 2.19121 1.06522 1.48493 2.19121 2.68436 1.48493 1.89179 2.68436 3.1318 1.89179 2.26579 3.1318 3.52469 2.26579 2.58651 14.0252 14.2507 11.8819 12.2801 14.2507 14.4517 12.2801 12.4622 14.4517 14.5869 12.4622 12.6154 14.5869 14.6775 12.6154 12.7225 14.6775 14.7254 12.7225 12.7749 14.7254 14.741 12.7749 12.7888 14.741 14.7455 12.7888 12.7875 1.89179 2.26579 1.16102 1.49501 2.26579 2.58651 1.49501 1.8148 2.58651 2.85101 1.8148 2.13786 4.29485 4.51317 3.02539 2.55976 4.51317 5.54023 2.55976 3.63236 5.54023 6.05547 3.63236 4.62801 6.05547 6.65687 4.62801 5.15463 6.65687 7.24329 5.15463 5.74213 7.24329 7.78973 5.74213 6.43754 7.78973 8.51533 6.43754 8.08344 8.51533 9.16583 8.08344 6.98996 12.4622 12.6154 10.5536 10.7391 12.6154 12.7225 10.7391 10.8488 12.7225 12.7749 10.8488 10.9183 12.7749 12.7888 10.9183 10.9338 12.7888 12.7875 10.9338 10.9196 1.8148 2.13786 1.09373 1.41604 2.13786 2.44611 1.41604 1.73442 4.62801 5.15463 4.19217 4.6635 5.15463 5.74213 4.6635 5.79492 5.74213 6.43754 5.79492 5.93969 6.43754 8.08344 5.93969 6.23609 10.7391 10.8488 8.86457 9.05677 10.8488 10.9183 9.05677 9.16876 10.9183 10.9338 9.16876 9.19473 10.9338 10.9196 9.19473 9.16087 0 -0.0561069 0 0.0232046 -0.0561069 -0.0312248 0.0232046 0.00265075 -0.0312248 -0.0564517 0.00265075 -0.00686 1.73442 2.04932 1.02341 1.33924 2.04932 2.36624 1.33924 1.65457 5.79492 5.93969 4.05373 4.80885 5.93969 6.23609 4.80885 5.45771 6.4629 6.59689 5.20911 5.18385 6.59689 6.56732 5.18385 5.25668 9.16876 9.19473 7.52475 7.58377 9.19473 9.16087 7.58377 7.5046 0 0.0232046 0 0.0186294 0.0232046 0.00265075 0.0186294 0.0204292 0.00265075 -0.00686 0.0204292 0.0209269 -0.00686 0.0318158 0.0209269 0.0319317 0.0318158 0.0444421 0.0319317 0.0629626 1.97119 2.29269 1.245 1.54456 5.23036 5.20911 3.73581 3.78802 5.20911 5.18385 3.78802 3.8565 5.18385 5.25668 3.8565 3.90709 5.25668 5.29223 3.90709 3.95761 0 0.0186294 0 0.0143479 0.0186294 0.0204292 0.0143479 0.0191869 0.0204292 0.0209269 0.0191869 0.0198462 0.0209269 0.0319317 0.0198462 0.0202479 0.0319317 0.0629626 0.0202479 0.0100678 0.0629626 0.075213 0.0100678 -0.0157792 0.075213 0.0842918 -0.0157792 -0.0876419 1.83774 2.13898 1.06432 1.31424 2.13898 2.4545 1.31424 1.57274 3.73581 3.78802 2.38319 2.46785 3.78802 3.8565 2.46785 2.53598 3.8565 3.90709 2.53598 2.59834 3.90709 3.95761 2.59834 2.66243 3.95761 4.08666 2.66243 2.69711 4.08666 4.75578 2.69711 2.47382 0 0.0143479 0 0.00765739 0.0143479 0.0191869 0.00765739 0.0106602 0.0191869 0.0198462 0.0106602 0.0103856 0.0198462 0.0202479 0.0103856 0.00578157 0.0202479 0.0100678 0.00578157 -0.00546667 0.0100678 -0.0157792 -0.00546667 -0.0253168 -0.0157792 -0.0876419 -0.0253168 -0.0341474 -0.0876419 -0.0882895 -0.0341474 -0.0494384 -0.0882895 -0.12718 -0.0494384 -0.0367664 1.31424 1.57274 0.562739 0.74463 1.57274 1.81938 0.74463 0.889289 1.81938 2.03956 0.889289 0.995035 2.29489 2.38319 0.956551 1.12418 2.38319 2.46785 1.12418 1.20784 2.46785 2.53598 1.20784 1.25736 2.53598 2.59834 1.25736 1.29584 2.59834 2.66243 1.29584 1.31663 2.66243 2.69711 1.31663 1.28434 2.69711 2.47382 1.28434 1.28161 2.47382 2.54723 1.28161 1.24456 2.54723 2.37572 1.24456 1.21055 3.66197 3.94034 1.75057 1.96392 0 0.00765739 0 -4.10399e-10 0.00765739 0.0106602 -4.10399e-10 -7.52297e-10 0.0106602 0.0103856 -7.52297e-10 -9.82544e-10 0.0103856 0.00578157 -9.82544e-10 -9.73379e-10 0.00578157 -0.00546667 -9.73379e-10 -4.85473e-10 -0.00546667 -0.0253168 -4.85473e-10 2.57556e-10 -0.0253168 -0.0341474 2.57556e-10 -7.1373e-10 -0.0341474 -0.0494384 -7.1373e-10 -4.54626e-09 -0.0494384 -0.0367664 -4.54626e-09 -7.23667e-09 -0.0367664 0.026313 -7.23667e-09 -6.36272e-09 0.026313 0.286949 -6.36272e-09 -3.49101e-09 0.74463 0.889289 1.5696e-12 1.44516e-12 0.889289 0.995035 1.44516e-12 1.43348e-12 0.995035 1.04443 1.43348e-12 1.59032e-12 1.04443 1.02733 1.59032e-12 1.70897e-12 0.956551 1.12418 -4.43026e-10 -8.29211e-10 1.12418 1.20784 -8.29211e-10 1.63346e-10 1.20784 1.25736 1.63346e-10 4.56233e-10 1.25736 1.29584 4.56233e-10 -1.8401e-10 1.29584 1.31663 -1.8401e-10 -5.81549e-10 1.31663 1.28434 -5.81549e-10 -2.13546e-09 1.28434 1.28161 -2.13546e-09 -1.78897e-09 1.28161 1.24456 -1.78897e-09 2.42671e-09 1.24456 1.21055 2.42671e-09 4.64507e-09 1.21055 1.17654 4.64507e-09 3.89042e-09 1.96392 2.18488 -1.15577e-12 -1.18336e-12 2.18488 2.19539 -1.18336e-12 -8.28896e-13 0 -4.10399e-10 0 -0.00765739 -4.10399e-10 -7.52297e-10 -0.00765739 -0.0106602 -7.52297e-10 -9.82544e-10 -0.0106602 -0.0103856 -9.82544e-10 -9.73379e-10 -0.0103856 -0.00578157 -9.73379e-10 -4.85473e-10 -0.00578157 0.00546667 -4.85473e-10 2.57556e-10 0.00546667 0.0253168 2.57556e-10 -7.1373e-10 0.0253168 0.0341474 -7.1373e-10 -4.54626e-09 0.0341474 0.0494384 -4.54626e-09 -7.23667e-09 0.0494384 0.0367664 -7.23667e-09 -6.36272e-09 0.0367664 -0.026313 -6.36272e-09 -3.49101e-09 -0.026313 -0.286949 1.5696e-12 1.44516e-12 -0.74463 -0.889289 1.44516e-12 1.43348e-12 -0.889289 -0.995035 1.43348e-12 1.59032e-12 -0.995035 -1.04443 1.59032e-12 1.70897e-12 -1.04443 -1.02733 -4.43026e-10 -8.29211e-10 -0.956551 -1.12418 -8.29211e-10 1.63346e-10 -1.12418 -1.20784 1.63346e-10 4.56233e-10 -1.20784 -1.25736 4.56233e-10 -1.8401e-10 -1.25736 -1.29584 -1.8401e-10 -5.81549e-10 -1.29584 -1.31663 -5.81549e-10 -2.13546e-09 -1.31663 -1.28434 -2.13546e-09 -1.78897e-09 -1.28434 -1.28161 -1.78897e-09 2.42671e-09 -1.28161 -1.24456 2.42671e-09 4.64507e-09 -1.24456 -1.21055 4.64507e-09 3.89042e-09 -1.21055 -1.17654 -1.15577e-12 -1.18336e-12 -1.96392 -2.18488 -1.18336e-12 -8.28896e-13 -2.18488 -2.19539 0 -0.00765739 0 -0.0143479 -0.00765739 -0.0106602 -0.0143479 -0.0191869 -0.0106602 -0.0103856 -0.0191869 -0.0198462 -0.0103856 -0.00578157 -0.0198462 -0.0202479 -0.00578157 0.00546667 -0.0202479 -0.0100678 0.00546667 0.0253168 -0.0100678 0.0157792 0.0253168 0.0341474 0.0157792 0.0876418 0.0341474 0.0494384 0.0876418 0.0882894 0.0494384 0.0367664 0.0882894 0.12718 -0.562739 -0.74463 -1.31424 -1.57274 -0.74463 -0.889289 -1.57274 -1.81938 -0.889289 -0.995035 -1.81938 -2.03956 -0.956551 -1.12418 -2.29489 -2.38319 -1.12418 -1.20784 -2.38319 -2.46785 -1.20784 -1.25736 -2.46785 -2.53598 -1.25736 -1.29584 -2.53598 -2.59834 -1.29584 -1.31663 -2.59834 -2.66243 -1.31663 -1.28434 -2.66243 -2.69711 -1.28434 -1.28161 -2.69711 -2.47382 -1.28161 -1.24456 -2.47382 -2.54723 -1.24456 -1.21055 -2.54723 -2.37572 -1.75057 -1.96392 -3.66197 -3.94034 0 -0.0143479 0 -0.0186294 -0.0143479 -0.0191869 -0.0186294 -0.0204292 -0.0191869 -0.0198462 -0.0204292 -0.0209269 -0.0198462 -0.0202479 -0.0209269 -0.0319317 -0.0202479 -0.0100678 -0.0319317 -0.0629626 -0.0100678 0.0157792 -0.0629626 -0.0752131 0.0157792 0.0876418 -0.0752131 -0.0842918 -1.06432 -1.31424 -1.83774 -2.13898 -1.31424 -1.57274 -2.13898 -2.4545 -2.38319 -2.46785 -3.73581 -3.78802 -2.46785 -2.53598 -3.78802 -3.8565 -2.53598 -2.59834 -3.8565 -3.90709 -2.59834 -2.66243 -3.90709 -3.95761 -2.66243 -2.69711 -3.95761 -4.08666 -2.69711 -2.47382 -4.08666 -4.75578 0 -0.0186294 0 -0.0232046 -0.0186294 -0.0204292 -0.0232046 -0.00265075 -0.0204292 -0.0209269 -0.00265075 0.00686 -0.0209269 -0.0319317 0.00686 -0.0318158 -0.0319317 -0.0629626 -0.0318158 -0.0444421 -1.245 -1.54456 -1.97119 -2.29269 -3.73581 -3.78802 -5.23036 -5.20911 -3.78802 -3.8565 -5.20911 -5.18385 -3.8565 -3.90709 -5.18385 -5.25668 -3.90709 -3.95761 -5.25668 -5.29223 0 -0.0232046 0 0.0561069 -0.0232046 -0.00265075 0.0561069 0.0312248 -0.00265075 0.00686 0.0312248 0.0564517 -1.02341 -1.33924 -1.73442 -2.04932 -1.33924 -1.65457 -2.04932 -2.36624 -4.05373 -4.80885 -5.79492 -5.93969 -4.80885 -5.45771 -5.93969 -6.23609 -5.20911 -5.18385 -6.4629 -6.59689 -5.18385 -5.25668 -6.59689 -6.56732 -7.52475 -7.58377 -9.16876 -9.19473 -7.58377 -7.5046 -9.19473 -9.16087 -1.09373 -1.41604 -1.8148 -2.13786 -1.41604 -1.73442 -2.13786 -2.44611 -4.19217 -4.6635 -4.62801 -5.15463 -4.6635 -5.79492 -5.15463 -5.74213 -5.79492 -5.93969 -5.74213 -6.43754 -5.93969 -6.23609 -6.43754 -8.08344 -8.86457 -9.05677 -10.7391 -10.8488 -9.05677 -9.16876 -10.8488 -10.9183 -9.16876 -9.19473 -10.9183 -10.9338 -9.19473 -9.16087 -10.9338 -10.9196 -1.16102 -1.49501 -1.89179 -2.26579 -1.49501 -1.8148 -2.26579 -2.58651 -1.8148 -2.13786 -2.58651 -2.85101 -3.02539 -2.55976 -4.29485 -4.51317 -2.55976 -3.63236 -4.51317 -5.54023 -3.63236 -4.62801 -5.54023 -6.05547 -4.62801 -5.15463 -6.05547 -6.65687 -5.15463 -5.74213 -6.65687 -7.24329 -5.74213 -6.43754 -7.24329 -7.78973 -6.43754 -8.08344 -7.78973 -8.51533 -8.08344 -6.98996 -8.51533 -9.16583 -10.5536 -10.7391 -12.4622 -12.6154 -10.7391 -10.8488 -12.6154 -12.7225 -10.8488 -10.9183 -12.7225 -12.7749 -10.9183 -10.9338 -12.7749 -12.7888 -10.9338 -10.9196 -12.7888 -12.7875 -1.06522 -1.48493 -1.66075 -2.19121 -1.48493 -1.89179 -2.19121 -2.68436 -1.89179 -2.26579 -2.68436 -3.1318 -2.26579 -2.58651 -3.1318 -3.52469 -11.8819 -12.2801 -14.0252 -14.2507 -12.2801 -12.4622 -14.2507 -14.4517 -12.4622 -12.6154 -14.4517 -14.5869 -12.6154 -12.7225 -14.5869 -14.6775 -12.7225 -12.7749 -14.6775 -14.7254 -12.7749 -12.7888 -14.7254 -14.741 -12.7888 -12.7875 -14.741 -14.7455 0 -0.534117 0 -0.780275 -0.534117 -1.09561 -0.780275 -1.60558 -1.09561 -1.66075 -1.60558 -2.33683 -1.66075 -2.19121 -2.33683 -2.98815 -2.19121 -2.68436 -2.98815 -3.57393 -2.68436 -3.1318 -3.57393 -4.10858 -3.1318 -3.52469 -4.10858 -4.61156 -3.52469 -3.90371 -4.61156 -5.10293 -11.1456 -11.4868 -12.7177 -13.1771 -11.4868 -11.7952 -13.1771 -13.5762 -11.7952 -12.0538 -13.5762 -13.9138 -13.3925 -13.7326 -15.5 -15.859 -13.7326 -14.0252 -15.859 -16.144 -14.0252 -14.2507 -16.144 -16.3713 -14.2507 -14.4517 -16.3713 -16.5368 -14.4517 -14.5869 -16.5368 -16.6523 -14.5869 -14.6775 -16.6523 -16.7204 -14.6775 -14.7254 -16.7204 -16.7534 -14.7254 -14.741 -16.7534 -16.764 -14.741 -14.7455 -16.764 -16.7671 0 -0.780275 0 -1.33536 -0.780275 -1.60558 -1.33536 -2.35036 -1.60558 -2.33683 -2.35036 -3.19984 -2.33683 -2.98815 -3.19984 -3.93195 -2.98815 -3.57393 -3.93195 -4.57764 -3.57393 -4.10858 -4.57764 -5.16956 -4.10858 -4.61156 -5.16956 -5.73947 -4.61156 -5.10293 -5.73947 -6.30863 -5.10293 -5.59219 -6.30863 -6.88046 -5.59219 -6.0794 -6.88046 -7.45239 -6.0794 -6.56819 -7.45239 -8.02477 -6.56819 -7.06177 -8.02477 -8.59549 -7.06177 -7.56618 -8.59549 -9.14702 -7.56618 -8.0764 -9.14702 -9.66565 -8.0764 -8.59698 -9.66565 -10.1611 -8.59698 -9.12381 -10.1611 -10.6534 -9.12381 -9.65081 -10.6534 -11.149 -9.65081 -10.1779 -11.149 -11.6474 -10.1779 -10.7055 -11.6474 -12.148 -10.7055 -11.2306 -12.148 -12.653 -11.2306 -11.7426 -12.653 -13.1812 -11.7426 -12.2392 -13.1812 -13.762 -12.2392 -12.7177 -13.762 -14.397 -12.7177 -13.1771 -14.397 -15.0125 -13.1771 -13.5762 -15.0125 -15.484 -14.7109 -15.0588 -16.9791 -17.4684 -15.0588 -15.5 -17.4684 -17.8182 -15.5 -15.859 -17.8182 -18.1331 -15.859 -16.144 -18.1331 -18.4025 -16.144 -16.3713 -18.4025 -18.6084 -16.3713 -16.5368 -18.6084 -18.7467 -16.5368 -16.6523 -18.7467 -18.8195 -16.6523 -16.7204 -18.8195 -18.8422 -16.7204 -16.7534 -18.8422 -18.8338 -16.7534 -16.764 -18.8338 -18.8188 -16.764 -16.7671 -18.8188 -18.8132 16.6869 16.0546 15.1938 15.4048 5.59219 5.83579 4.94696 5.16906 5.83579 6.0794 5.16906 5.39249 4.94696 5.16906 4.29755 4.50164 5.16906 5.39249 4.50164 4.70588 6.0794 6.32379 5.39249 5.6163 6.32379 6.56819 5.6163 5.84013 5.39249 5.6163 4.70588 4.90971 5.6163 5.84013 4.90971 5.11311 6.56819 6.81498 5.84013 6.06505 6.81498 7.06177 6.06505 6.29274 7.06177 7.31398 6.29274 6.52599 7.31398 7.56618 6.52599 6.76986 7.56618 7.82129 6.76986 7.01916 7.82129 8.0764 7.01916 7.27792 8.0764 8.33669 7.27792 7.54434 8.33669 8.59698 7.54434 7.81549 8.59698 8.8604 7.81549 8.0872 8.8604 9.12381 8.0872 8.35884 9.12381 9.38731 8.35884 8.63019 9.38731 9.65081 8.63019 8.9012 9.65081 9.91434 8.9012 9.17196 9.91434 10.1779 9.17196 9.44243 10.1779 10.4417 9.44243 9.71267 10.4417 10.7055 9.71267 9.98258 10.7055 10.968 9.98258 10.2521 10.968 11.2306 10.2521 10.5192 11.2306 11.4866 10.5192 10.7804 11.4866 11.7426 10.7804 11.0288 11.7426 11.9909 11.0288 11.2692 11.9909 12.2392 11.2692 11.4905 13.2442 13.3748 12.2999 12.4241 14.7109 14.8848 13.5989 13.561 14.8848 15.0588 13.561 13.9807 0 0.267058 0 0.20048 0.267058 0.534117 0.20048 0.416444 0.534117 0.814862 0.416444 0.643479 0.814862 1.09561 0.643479 0.880806 0.416444 0.643479 0.283247 0.474618 0.643479 0.880806 0.474618 0.656774 5.05226 5.23843 4.29485 4.40401 5.23843 5.64898 4.40401 4.51317 5.64898 5.96674 4.51317 5.0267 5.96674 6.25507 5.0267 5.54023 6.25507 6.5442 5.54023 5.79785 6.5442 6.83117 5.79785 6.05547 6.83117 7.11776 6.05547 6.35617 7.11776 7.40388 6.35617 6.65687 7.40388 7.68916 6.65687 6.95008 7.68916 7.97324 6.95008 7.24329 7.97324 8.25612 7.24329 7.51651 8.25612 8.53772 7.51651 7.78973 8.53772 8.81843 7.78973 8.15253 8.81843 9.09337 8.15253 8.51533 9.09337 9.45495 8.51533 8.84058 9.45495 9.78469 8.84058 9.16583 9.78469 9.93436 9.16583 9.18263 10.963 11.1456 10.3188 10.4463 11.7952 11.9245 10.8676 10.9757 11.9245 12.0538 10.9757 11.0925 13.3925 13.5625 12.4062 12.6579 13.5625 13.7326 12.6579 12.694 12.6579 12.694 11.4402 11.4444 0 0.158357 0 -0.207408 0.857011 1.06522 0.587594 0.773552 1.06522 1.27508 0.773552 0.95814 1.27508 1.48493 0.95814 1.14742 3.609 3.9475 3.23074 3.13994 3.9475 3.97975 3.13994 3.4251 3.97975 4.10861 3.4251 3.58009 9.16583 9.18263 8.07789 8.61081 8.07789 8.61081 6.98996 7.92971 9.70885 9.74134 8.96989 8.99005 8.96989 8.99005 8.22874 8.23897 10.3872 10.5249 9.42419 9.56944 10.5249 10.663 9.56944 9.71042 10.2662 10.398 9.31757 9.45756 10.398 10.534 9.45756 9.59781 12.288 11.8819 10.8974 11.0529 0.107164 0.349667 -0.0312248 -0.0438382 0.349667 0.35752 -0.0438382 -0.0564517 1.16102 1.32801 0.800761 0.962172 1.32801 1.49501 0.962172 1.12482 2.4008 2.55187 2.04932 2.20778 2.55187 2.712 2.20778 2.36624 3.02539 2.79258 3.20586 3.5851 2.79258 2.55976 3.5851 3.98436 7.36943 7.42056 6.62864 6.4629 7.1557 7.65287 6.59689 6.5821 7.65287 7.66255 6.5821 6.56732 8.90376 9.0426 7.95574 8.0926 8.92704 9.07404 7.98065 8.12052 10.4622 10.5536 9.54286 9.74376 -0.089068 0.187154 0.0318158 0.0381289 0.187154 0.264531 0.0381289 0.0444421 1.09373 1.25489 0.744779 0.908369 1.25489 1.41604 0.908369 1.06246 2.33535 2.49765 1.97119 2.13194 2.49765 2.66204 2.13194 2.29269 4.17856 4.19217 3.35464 3.36727 4.19217 4.42784 3.36727 3.84053 4.42784 4.6635 3.84053 4.35312 6.23609 6.57653 5.8469 6.03851 5.8469 6.03851 5.45771 5.41803 6.79218 6.78913 6.06444 6.06658 6.06444 6.06658 5.34175 5.34586 5.84377 6.16021 5.29223 4.98563 7.56152 7.69996 6.60757 6.74664 7.58432 7.71708 6.63788 6.77812 8.86457 8.96067 7.96697 8.10714 8.96067 9.05677 8.10714 8.20139 0.14616 0.197275 0.075213 0.0797524 0.197275 0.258753 0.0797524 0.0842918 1.02341 1.18132 0.659096 0.820441 1.18132 1.33924 0.820441 0.974481 2.61975 2.78805 2.23086 2.3938 2.78805 2.98132 2.3938 2.56288 2.23086 2.3938 1.83774 1.98836 2.3938 2.56288 1.98836 2.13898 2.56288 2.72575 2.13898 2.29674 2.72575 2.90169 2.29674 2.4545 4.05373 4.43129 3.55028 3.44761 4.43129 4.80885 3.44761 4.33575 5.26592 5.23036 4.34158 4.48308 4.34158 4.48308 3.799 3.73581 4.38515 4.8664 4.75578 3.14148 6.08343 6.22079 5.12783 5.27574 6.22079 6.35972 5.27574 5.41386 5.97603 6.11478 5.03062 5.1701 6.11478 6.2673 5.1701 5.3109 7.52475 7.55426 6.71186 6.7886 7.55426 7.58377 6.7886 6.83535 0.253589 0.168116 -0.443639 -0.125701 -0.443639 -0.125701 -0.0882895 -0.107735 -0.125701 0.262378 -0.107735 -0.12718 0.262378 0.28829 -0.12718 -0.196874 1.09286 1.245 0.736195 0.880307 2.76808 2.92752 2.29395 2.4338 2.29395 2.4338 1.81938 1.92947 2.4338 2.56624 1.92947 2.03956 2.56624 2.71098 2.03956 2.14338 3.87887 3.87709 3.13792 3.13852 3.13792 3.13852 2.39826 2.40752 4.09282 4.01758 2.80329 3.08336 2.80329 3.08336 2.54723 2.46147 3.08336 3.36204 2.46147 2.37572 4.63756 4.78023 3.66197 3.80115 4.78023 4.93089 3.80115 3.94034 6.10341 6.0601 5.25133 5.25894 -0.23795 0.136699 0.286949 -0.779518 0.936684 1.06432 0.576854 0.696813 2.32912 2.29489 1.47948 1.62572 1.47948 1.62572 0.905552 0.956551 1.65372 1.88205 1.17654 1.14907 3.27715 3.40564 2.34843 2.46291 3.16213 3.23856 2.18488 2.19013 3.23856 3.26281 2.19013 2.19539 -0.414684 0.0928971 -2.91196e-11 2.57348e-12 0.0928971 0.114741 2.57348e-12 2.10514e-12 1.02733 1.02371 0.513663 0.47186 0.513663 0.47186 1.70897e-12 1.59579e-12 0.356093 0.655149 4.31975e-10 1.76838e-10 1.65281 1.75057 0.770085 0.844971 -2.91196e-11 2.57348e-12 0.414684 -0.0928971 2.57348e-12 2.10514e-12 -0.0928971 -0.114741 1.70897e-12 1.59579e-12 -0.513663 -0.47186 -0.513663 -0.47186 -1.02733 -1.02371 4.31975e-10 1.76838e-10 -0.356093 -0.655149 -0.770085 -0.844971 -1.65281 -1.75057 -0.286949 0.779518 0.23795 -0.136699 -0.576854 -0.696813 -0.936684 -1.06432 -0.905552 -0.956551 -1.47948 -1.62572 -1.47948 -1.62572 -2.32912 -2.29489 -1.17654 -1.14907 -1.65372 -1.88205 -2.34843 -2.46291 -3.27715 -3.40564 -2.18488 -2.19013 -3.16213 -3.23856 -2.19013 -2.19539 -3.23856 -3.26281 0.0882894 0.107735 0.443639 0.125701 0.107735 0.12718 0.125701 -0.262378 0.443639 0.125701 -0.253589 -0.168116 0.12718 0.196874 -0.262378 -0.28829 -0.736195 -0.880307 -1.09286 -1.245 -1.81938 -1.92947 -2.29395 -2.4338 -1.92947 -2.03956 -2.4338 -2.56624 -2.29395 -2.4338 -2.76808 -2.92752 -2.03956 -2.14338 -2.56624 -2.71098 -2.39826 -2.40752 -3.13792 -3.13852 -3.13792 -3.13852 -3.87887 -3.87709 -2.54723 -2.46147 -2.80329 -3.08336 -2.46147 -2.37572 -3.08336 -3.36204 -2.80329 -3.08336 -4.09282 -4.01758 -3.66197 -3.80115 -4.63756 -4.78023 -3.80115 -3.94034 -4.78023 -4.93089 -5.25133 -5.25894 -6.10341 -6.0601 -0.0752131 -0.0797524 -0.14616 -0.197275 -0.0797524 -0.0842918 -0.197275 -0.258753 -0.659096 -0.820441 -1.02341 -1.18132 -0.820441 -0.974481 -1.18132 -1.33924 -1.83774 -1.98836 -2.23086 -2.3938 -1.98836 -2.13898 -2.3938 -2.56288 -2.23086 -2.3938 -2.61975 -2.78805 -2.3938 -2.56288 -2.78805 -2.98132 -2.13898 -2.29674 -2.56288 -2.72575 -2.29674 -2.4545 -2.72575 -2.90169 -3.55028 -3.44761 -4.05373 -4.43129 -3.44761 -4.33575 -4.43129 -4.80885 -3.799 -3.73581 -4.34158 -4.48308 -4.34158 -4.48308 -5.26592 -5.23036 -4.75578 -3.14148 -4.38515 -4.8664 -5.12783 -5.27574 -6.08343 -6.22079 -5.27574 -5.41386 -6.22079 -6.35972 -5.03062 -5.1701 -5.97603 -6.11478 -5.1701 -5.3109 -6.11478 -6.2673 -6.71186 -6.7886 -7.52475 -7.55426 -6.7886 -6.83535 -7.55426 -7.58377 -0.0318158 -0.0381289 0.08