# vtk DataFile Version 3.0
#This file was generated by the deal.II library on 2016/3/9 at 8:36:03
ASCII
DATASET UNSTRUCTURED_GRID

POINTS 2048 double
0 0 0
0.0625 0 0
0 0.0625 0
0.0625 0.0625 0
0.0625 0 0
0.125 0 0
0.0625 0.0625 0
0.125 0.0625 0
0 0.0625 0
0.0625 0.0625 0
0 0.125 0
0.0625 0.125 0
0.0625 0.0625 0
0.125 0.0625 0
0.0625 0.125 0
0.125 0.125 0
0.125 0 0
0.1875 0 0
0.125 0.0625 0
0.1875 0.0625 0
0.1875 0 0
0.25 0 0
0.1875 0.0625 0
0.25 0.0625 0
0.125 0.0625 0
0.1875 0.0625 0
0.125 0.125 0
0.1875 0.125 0
0.1875 0.0625 0
0.25 0.0625 0
0.1875 0.125 0
0.25 0.125 0
0 0.125 0
0.0625 0.125 0
0 0.1875 0
0.0625 0.1875 0
0.0625 0.125 0
0.125 0.125 0
0.0625 0.1875 0
0.125 0.1875 0
0 0.1875 0
0.0625 0.1875 0
0 0.25 0
0.0625 0.25 0
0.0625 0.1875 0
0.125 0.1875 0
0.0625 0.25 0
0.125 0.25 0
0.125 0.125 0
0.1875 0.125 0
0.125 0.1875 0
0.1875 0.1875 0
0.1875 0.125 0
0.25 0.125 0
0.1875 0.1875 0
0.25 0.1875 0
0.125 0.1875 0
0.1875 0.1875 0
0.125 0.25 0
0.1875 0.25 0
0.1875 0.1875 0
0.25 0.1875 0
0.1875 0.25 0
0.25 0.25 0
0.25 0 0
0.3125 0 0
0.25 0.0625 0
0.3125 0.0625 0
0.3125 0 0
0.375 0 0
0.3125 0.0625 0
0.375 0.0625 0
0.25 0.0625 0
0.3125 0.0625 0
0.25 0.125 0
0.3125 0.125 0
0.3125 0.0625 0
0.375 0.0625 0
0.3125 0.125 0
0.375 0.125 0
0.375 0 0
0.4375 0 0
0.375 0.0625 0
0.4375 0.0625 0
0.4375 0 0
0.5 0 0
0.4375 0.0625 0
0.5 0.0625 0
0.375 0.0625 0
0.4375 0.0625 0
0.375 0.125 0
0.4375 0.125 0
0.4375 0.0625 0
0.5 0.0625 0
0.4375 0.125 0
0.5 0.125 0
0.25 0.125 0
0.3125 0.125 0
0.25 0.1875 0
0.3125 0.1875 0
0.3125 0.125 0
0.375 0.125 0
0.3125 0.1875 0
0.375 0.1875 0
0.25 0.1875 0
0.3125 0.1875 0
0.25 0.25 0
0.3125 0.25 0
0.3125 0.1875 0
0.375 0.1875 0
0.3125 0.25 0
0.375 0.25 0
0.375 0.125 0
0.4375 0.125 0
0.375 0.1875 0
0.4375 0.1875 0
0.4375 0.125 0
0.5 0.125 0
0.4375 0.1875 0
0.5 0.1875 0
0.375 0.1875 0
0.4375 0.1875 0
0.375 0.25 0
0.4375 0.25 0
0.4375 0.1875 0
0.5 0.1875 0
0.4375 0.25 0
0.5 0.25 0
0 0.25 0
0.0625 0.25 0
0 0.3125 0
0.0625 0.3125 0
0.0625 0.25 0
0.125 0.25 0
0.0625 0.3125 0
0.125 0.3125 0
0 0.3125 0
0.0625 0.3125 0
0 0.375 0
0.0625 0.375 0
0.0625 0.3125 0
0.125 0.3125 0
0.0625 0.375 0
0.125 0.375 0
0.125 0.25 0
0.1875 0.25 0
0.125 0.3125 0
0.1875 0.3125 0
0.1875 0.25 0
0.25 0.25 0
0.1875 0.3125 0
0.25 0.3125 0
0.125 0.3125 0
0.1875 0.3125 0
0.125 0.375 0
0.1875 0.375 0
0.1875 0.3125 0
0.25 0.3125 0
0.1875 0.375 0
0.25 0.375 0
0 0.375 0
0.0625 0.375 0
0 0.4375 0
0.0625 0.4375 0
0.0625 0.375 0
0.125 0.375 0
0.0625 0.4375 0
0.125 0.4375 0
0 0.4375 0
0.0625 0.4375 0
0 0.5 0
0.0625 0.5 0
0.0625 0.4375 0
0.125 0.4375 0
0.0625 0.5 0
0.125 0.5 0
0.125 0.375 0
0.1875 0.375 0
0.125 0.4375 0
0.1875 0.4375 0
0.1875 0.375 0
0.25 0.375 0
0.1875 0.4375 0
0.25 0.4375 0
0.125 0.4375 0
0.1875 0.4375 0
0.125 0.5 0
0.1875 0.5 0
0.1875 0.4375 0
0.25 0.4375 0
0.1875 0.5 0
0.25 0.5 0
0.25 0.25 0
0.3125 0.25 0
0.25 0.3125 0
0.3125 0.3125 0
0.3125 0.25 0
0.375 0.25 0
0.3125 0.3125 0
0.375 0.3125 0
0.25 0.3125 0
0.3125 0.3125 0
0.25 0.375 0
0.3125 0.375 0
0.3125 0.3125 0
0.375 0.3125 0
0.3125 0.375 0
0.375 0.375 0
0.375 0.25 0
0.4375 0.25 0
0.375 0.3125 0
0.4375 0.3125 0
0.4375 0.25 0
0.5 0.25 0
0.4375 0.3125 0
0.5 0.3125 0
0.375 0.3125 0
0.4375 0.3125 0
0.375 0.375 0
0.4375 0.375 0
0.4375 0.3125 0
0.5 0.3125 0
0.4375 0.375 0
0.5 0.375 0
0.25 0.375 0
0.3125 0.375 0
0.25 0.4375 0
0.3125 0.4375 0
0.3125 0.375 0
0.375 0.375 0
0.3125 0.4375 0
0.375 0.4375 0
0.25 0.4375 0
0.3125 0.4375 0
0.25 0.5 0
0.3125 0.5 0
0.3125 0.4375 0
0.375 0.4375 0
0.3125 0.5 0
0.375 0.5 0
0.375 0.375 0
0.4375 0.375 0
0.375 0.4375 0
0.4375 0.4375 0
0.4375 0.375 0
0.5 0.375 0
0.4375 0.4375 0
0.5 0.4375 0
0.375 0.4375 0
0.4375 0.4375 0
0.375 0.5 0
0.4375 0.5 0
0.4375 0.4375 0
0.5 0.4375 0
0.4375 0.5 0
0.5 0.5 0
0.5 0 0
0.5625 0 0
0.5 0.0625 0
0.5625 0.0625 0
0.5625 0 0
0.625 0 0
0.5625 0.0625 0
0.625 0.0625 0
0.5 0.0625 0
0.5625 0.0625 0
0.5 0.125 0
0.5625 0.125 0
0.5625 0.0625 0
0.625 0.0625 0
0.5625 0.125 0
0.625 0.125 0
0.625 0 0
0.6875 0 0
0.625 0.0625 0
0.6875 0.0625 0
0.6875 0 0
0.75 0 0
0.6875 0.0625 0
0.75 0.0625 0
0.625 0.0625 0
0.6875 0.0625 0
0.625 0.125 0
0.6875 0.125 0
0.6875 0.0625 0
0.75 0.0625 0
0.6875 0.125 0
0.75 0.125 0
0.5 0.125 0
0.5625 0.125 0
0.5 0.1875 0
0.5625 0.1875 0
0.5625 0.125 0
0.625 0.125 0
0.5625 0.1875 0
0.625 0.1875 0
0.5 0.1875 0
0.5625 0.1875 0
0.5 0.25 0
0.5625 0.25 0
0.5625 0.1875 0
0.625 0.1875 0
0.5625 0.25 0
0.625 0.25 0
0.625 0.125 0
0.6875 0.125 0
0.625 0.1875 0
0.6875 0.1875 0
0.6875 0.125 0
0.75 0.125 0
0.6875 0.1875 0
0.75 0.1875 0
0.625 0.1875 0
0.6875 0.1875 0
0.625 0.25 0
0.6875 0.25 0
0.6875 0.1875 0
0.75 0.1875 0
0.6875 0.25 0
0.75 0.25 0
0.75 0 0
0.8125 0 0
0.75 0.0625 0
0.8125 0.0625 0
0.8125 0 0
0.875 0 0
0.8125 0.0625 0
0.875 0.0625 0
0.75 0.0625 0
0.8125 0.0625 0
0.75 0.125 0
0.8125 0.125 0
0.8125 0.0625 0
0.875 0.0625 0
0.8125 0.125 0
0.875 0.125 0
0.875 0 0
0.9375 0 0
0.875 0.0625 0
0.9375 0.0625 0
0.9375 0 0
1 0 0
0.9375 0.0625 0
1 0.0625 0
0.875 0.0625 0
0.9375 0.0625 0
0.875 0.125 0
0.9375 0.125 0
0.9375 0.0625 0
1 0.0625 0
0.9375 0.125 0
1 0.125 0
0.75 0.125 0
0.8125 0.125 0
0.75 0.1875 0
0.8125 0.1875 0
0.8125 0.125 0
0.875 0.125 0
0.8125 0.1875 0
0.875 0.1875 0
0.75 0.1875 0
0.8125 0.1875 0
0.75 0.25 0
0.8125 0.25 0
0.8125 0.1875 0
0.875 0.1875 0
0.8125 0.25 0
0.875 0.25 0
0.875 0.125 0
0.9375 0.125 0
0.875 0.1875 0
0.9375 0.1875 0
0.9375 0.125 0
1 0.125 0
0.9375 0.1875 0
1 0.1875 0
0.875 0.1875 0
0.9375 0.1875 0
0.875 0.25 0
0.9375 0.25 0
0.9375 0.1875 0
1 0.1875 0
0.9375 0.25 0
1 0.25 0
0.5 0.25 0
0.5625 0.25 0
0.5 0.3125 0
0.5625 0.3125 0
0.5625 0.25 0
0.625 0.25 0
0.5625 0.3125 0
0.625 0.3125 0
0.5 0.3125 0
0.5625 0.3125 0
0.5 0.375 0
0.5625 0.375 0
0.5625 0.3125 0
0.625 0.3125 0
0.5625 0.375 0
0.625 0.375 0
0.625 0.25 0
0.6875 0.25 0
0.625 0.3125 0
0.6875 0.3125 0
0.6875 0.25 0
0.75 0.25 0
0.6875 0.3125 0
0.75 0.3125 0
0.625 0.3125 0
0.6875 0.3125 0
0.625 0.375 0
0.6875 0.375 0
0.6875 0.3125 0
0.75 0.3125 0
0.6875 0.375 0
0.75 0.375 0
0.5 0.375 0
0.5625 0.375 0
0.5 0.4375 0
0.5625 0.4375 0
0.5625 0.375 0
0.625 0.375 0
0.5625 0.4375 0
0.625 0.4375 0
0.5 0.4375 0
0.5625 0.4375 0
0.5 0.5 0
0.5625 0.5 0
0.5625 0.4375 0
0.625 0.4375 0
0.5625 0.5 0
0.625 0.5 0
0.625 0.375 0
0.6875 0.375 0
0.625 0.4375 0
0.6875 0.4375 0
0.6875 0.375 0
0.75 0.375 0
0.6875 0.4375 0
0.75 0.4375 0
0.625 0.4375 0
0.6875 0.4375 0
0.625 0.5 0
0.6875 0.5 0
0.6875 0.4375 0
0.75 0.4375 0
0.6875 0.5 0
0.75 0.5 0
0.75 0.25 0
0.8125 0.25 0
0.75 0.3125 0
0.8125 0.3125 0
0.8125 0.25 0
0.875 0.25 0
0.8125 0.3125 0
0.875 0.3125 0
0.75 0.3125 0
0.8125 0.3125 0
0.75 0.375 0
0.8125 0.375 0
0.8125 0.3125 0
0.875 0.3125 0
0.8125 0.375 0
0.875 0.375 0
0.875 0.25 0
0.9375 0.25 0
0.875 0.3125 0
0.9375 0.3125 0
0.9375 0.25 0
1 0.25 0
0.9375 0.3125 0
1 0.3125 0
0.875 0.3125 0
0.9375 0.3125 0
0.875 0.375 0
0.9375 0.375 0
0.9375 0.3125 0
1 0.3125 0
0.9375 0.375 0
1 0.375 0
0.75 0.375 0
0.8125 0.375 0
0.75 0.4375 0
0.8125 0.4375 0
0.8125 0.375 0
0.875 0.375 0
0.8125 0.4375 0
0.875 0.4375 0
0.75 0.4375 0
0.8125 0.4375 0
0.75 0.5 0
0.8125 0.5 0
0.8125 0.4375 0
0.875 0.4375 0
0.8125 0.5 0
0.875 0.5 0
0.875 0.375 0
0.9375 0.375 0
0.875 0.4375 0
0.9375 0.4375 0
0.9375 0.375 0
1 0.375 0
0.9375 0.4375 0
1 0.4375 0
0.875 0.4375 0
0.9375 0.4375 0
0.875 0.5 0
0.9375 0.5 0
0.9375 0.4375 0
1 0.4375 0
0.9375 0.5 0
1 0.5 0
1 0 0
1.0625 0 0
1 0.0625 0
1.0625 0.0625 0
1.0625 0 0
1.125 0 0
1.0625 0.0625 0
1.125 0.0625 0
1 0.0625 0
1.0625 0.0625 0
1 0.125 0
1.0625 0.125 0
1.0625 0.0625 0
1.125 0.0625 0
1.0625 0.125 0
1.125 0.125 0
1.125 0 0
1.1875 0 0
1.125 0.0625 0
1.1875 0.0625 0
1.1875 0 0
1.25 0 0
1.1875 0.0625 0
1.25 0.0625 0
1.125 0.0625 0
1.1875 0.0625 0
1.125 0.125 0
1.1875 0.125 0
1.1875 0.0625 0
1.25 0.0625 0
1.1875 0.125 0
1.25 0.125 0
1 0.125 0
1.0625 0.125 0
1 0.1875 0
1.0625 0.1875 0
1.0625 0.125 0
1.125 0.125 0
1.0625 0.1875 0
1.125 0.1875 0
1 0.1875 0
1.0625 0.1875 0
1 0.25 0
1.0625 0.25 0
1.0625 0.1875 0
1.125 0.1875 0
1.0625 0.25 0
1.125 0.25 0
1.125 0.125 0
1.1875 0.125 0
1.125 0.1875 0
1.1875 0.1875 0
1.1875 0.125 0
1.25 0.125 0
1.1875 0.1875 0
1.25 0.1875 0
1.125 0.1875 0
1.1875 0.1875 0
1.125 0.25 0
1.1875 0.25 0
1.1875 0.1875 0
1.25 0.1875 0
1.1875 0.25 0
1.25 0.25 0
1.25 0 0
1.3125 0 0
1.25 0.0625 0
1.3125 0.0625 0
1.3125 0 0
1.375 0 0
1.3125 0.0625 0
1.375 0.0625 0
1.25 0.0625 0
1.3125 0.0625 0
1.25 0.125 0
1.3125 0.125 0
1.3125 0.0625 0
1.375 0.0625 0
1.3125 0.125 0
1.375 0.125 0
1.375 0 0
1.4375 0 0
1.375 0.0625 0
1.4375 0.0625 0
1.4375 0 0
1.5 0 0
1.4375 0.0625 0
1.5 0.0625 0
1.375 0.0625 0
1.4375 0.0625 0
1.375 0.125 0
1.4375 0.125 0
1.4375 0.0625 0
1.5 0.0625 0
1.4375 0.125 0
1.5 0.125 0
1.25 0.125 0
1.3125 0.125 0
1.25 0.1875 0
1.3125 0.1875 0
1.3125 0.125 0
1.375 0.125 0
1.3125 0.1875 0
1.375 0.1875 0
1.25 0.1875 0
1.3125 0.1875 0
1.25 0.25 0
1.3125 0.25 0
1.3125 0.1875 0
1.375 0.1875 0
1.3125 0.25 0
1.375 0.25 0
1.375 0.125 0
1.4375 0.125 0
1.375 0.1875 0
1.4375 0.1875 0
1.4375 0.125 0
1.5 0.125 0
1.4375 0.1875 0
1.5 0.1875 0
1.375 0.1875 0
1.4375 0.1875 0
1.375 0.25 0
1.4375 0.25 0
1.4375 0.1875 0
1.5 0.1875 0
1.4375 0.25 0
1.5 0.25 0
1 0.25 0
1.0625 0.25 0
1 0.3125 0
1.0625 0.3125 0
1.0625 0.25 0
1.125 0.25 0
1.0625 0.3125 0
1.125 0.3125 0
1 0.3125 0
1.0625 0.3125 0
1 0.375 0
1.0625 0.375 0
1.0625 0.3125 0
1.125 0.3125 0
1.0625 0.375 0
1.125 0.375 0
1.125 0.25 0
1.1875 0.25 0
1.125 0.3125 0
1.1875 0.3125 0
1.1875 0.25 0
1.25 0.25 0
1.1875 0.3125 0
1.25 0.3125 0
1.125 0.3125 0
1.1875 0.3125 0
1.125 0.375 0
1.1875 0.375 0
1.1875 0.3125 0
1.25 0.3125 0
1.1875 0.375 0
1.25 0.375 0
1 0.375 0
1.0625 0.375 0
1 0.4375 0
1.0625 0.4375 0
1.0625 0.375 0
1.125 0.375 0
1.0625 0.4375 0
1.125 0.4375 0
1 0.4375 0
1.0625 0.4375 0
1 0.5 0
1.0625 0.5 0
1.0625 0.4375 0
1.125 0.4375 0
1.0625 0.5 0
1.125 0.5 0
1.125 0.375 0
1.1875 0.375 0
1.125 0.4375 0
1.1875 0.4375 0
1.1875 0.375 0
1.25 0.375 0
1.1875 0.4375 0
1.25 0.4375 0
1.125 0.4375 0
1.1875 0.4375 0
1.125 0.5 0
1.1875 0.5 0
1.1875 0.4375 0
1.25 0.4375 0
1.1875 0.5 0
1.25 0.5 0
[...]
POINT_DATA 2048
SCALARS x_displacement double 1
LOOKUP_TABLE default
0 2.43599 0 1.00812 2.43599 4.37274 1.00812 2.1646 0 1.00812 0 0.0402835 1.00812 2.1646 0.0402835 0.324259 4.37274 5.9036 2.1646 3.2347 5.9036 7.06164 3.2347 4.22224 2.1646 3.2347 0.324259 0.916722 3.2347 4.22224 0.916722 1.72821 0 0.0402835 0 -0.934345 0.0402835 0.324259 -0.934345 -1.43318 0 -0.934345 0 -1.9666 -0.934345 -1.43318 -1.9666 -3.14364 0.324259 0.916722 -1.43318 -1.3123 0.916722 1.72821 -1.3123 -0.6081 -1.43318 -1.3123 -3.14364 -3.48057 -1.3123 -0.6081 -3.48057 -2.72991 7.06164 7.91993 4.22224 5.10267 7.91993 8.6056 5.10267 5.85272 4.22224 5.10267 1.72821 2.59462 5.10267 5.85272 2.59462 3.34044 8.6056 9.24985 5.85272 6.51847 9.24985 9.98087 6.51847 7.20222 5.85272 6.51847 3.34044 3.94892 6.51847 7.20222 3.94892 4.47682 1.72821 2.59462 -0.6081 0.361191 2.59462 3.34044 0.361191 1.18218 -0.6081 0.361191 -2.72991 -1.43989 0.361191 1.18218 -1.43989 -0.467653 3.34044 3.94892 1.18218 1.76335 3.94892 4.47682 1.76335 2.16638 1.18218 1.76335 -0.467653 0.160135 1.76335 2.16638 0.160135 0.581146 0 -1.9666 0 -3.09016 -1.9666 -3.14364 -3.09016 -4.67564 0 -3.09016 0 -2.04328 -3.09016 -4.67564 -2.04328 -4.09332 -3.14364 -3.48057 -4.67564 -5.51759 -3.48057 -2.72991 -5.51759 -4.43169 -4.67564 -5.51759 -4.09332 -4.57027 -5.51759 -4.43169 -4.57027 -2.67474 0 -2.04328 0 -0.724013 -2.04328 -4.09332 -0.724013 -1.47273 0 -0.724013 0 -7.04901e-11 -0.724013 -1.47273 -7.04901e-11 6.65608e-12 -4.09332 -4.57027 -1.47273 -2.36576 -4.57027 -2.67474 -2.36576 -4.15488 -1.47273 -2.36576 6.65608e-12 -4.68064e-10 -2.36576 -4.15488 -4.68064e-10 -5.00911e-10 -2.72991 -1.43989 -4.43169 -2.55029 -1.43989 -0.467653 -2.55029 -1.43161 -4.43169 -2.55029 -2.67474 -2.49943 -2.55029 -1.43161 -2.49943 -1.75337 -0.467653 0.160135 -1.43161 -0.766245 0.160135 0.581146 -0.766245 -0.28559 -1.43161 -0.766245 -1.75337 -1.22379 -0.766245 -0.28559 -1.22379 -0.731596 -2.67474 -2.49943 -4.15488 -2.69709 -2.49943 -1.75337 -2.69709 -1.62291 -4.15488 -2.69709 -5.00911e-10 -4.1042e-10 -2.69709 -1.62291 -4.1042e-10 -5.3241e-11 -1.75337 -1.22379 -1.62291 -1.22309 -1.22379 -0.731596 -1.22309 -0.748167 -1.62291 -1.22309 -5.3241e-11 -3.97267e-11 -1.22309 -0.748167 -3.97267e-11 -2.60978e-11 9.98087 10.8506 7.20222 7.97084 10.8506 11.8232 7.97084 8.87919 7.20222 7.97084 4.47682 5.06523 7.97084 8.87919 5.06523 5.83878 11.8232 12.8527 8.87919 9.88796 12.8527 13.8972 9.88796 10.9459 8.87919 9.88796 5.83878 6.86097 9.88796 10.9459 6.86097 8.01257 4.47682 5.06523 2.16638 2.5319 5.06523 5.83878 2.5319 3.00758 2.16638 2.5319 0.581146 0.927469 2.5319 3.00758 0.927469 1.33385 5.83878 6.86097 3.00758 3.87039 6.86097 8.01257 3.87039 5.25834 3.00758 3.87039 1.33385 2.0518 3.87039 5.25834 2.0518 3.6633 13.8972 14.9511 10.9459 11.9589 14.9511 16.0262 11.9589 12.8659 10.9459 11.9589 8.01257 9.06318 11.9589 12.8659 9.06318 9.85103 16.0262 17.0531 12.8659 13.6644 17.0531 17.9542 13.6644 14.3724 12.8659 13.6644 9.85103 10.4827 13.6644 14.3724 10.4827 11.081 8.01257 9.06318 5.25834 6.46322 9.06318 9.85103 6.46322 7.09762 5.25834 6.46322 3.6633 4.59146 6.46322 7.09762 4.59146 4.89425 9.85103 10.4827 7.09762 7.51619 10.4827 11.081 7.51619 7.91758 7.09762 7.51619 4.89425 5.02865 7.51619 7.91758 5.02865 5.05837 0.581146 0.927469 -0.28559 0.180995 0.927469 1.33385 0.180995 0.756738 -0.28559 0.180995 -0.731596 -0.208099 0.180995 0.756738 -0.208099 0.39873 1.33385 2.0518 0.756738 1.63296 2.0518 3.6633 1.63296 2.66851 0.756738 1.63296 0.39873 1.04134 1.63296 2.66851 1.04134 1.51488 -0.731596 -0.208099 -0.748167 -0.290151 -0.208099 0.39873 -0.290151 0.130685 -0.748167 -0.290151 -2.60978e-11 -1.79445e-11 -0.290151 0.130685 -1.79445e-11 -1.3407e-11 0.39873 1.04134 0.130685 0.45081 1.04134 1.51488 0.45081 0.62803 0.130685 0.45081 -1.3407e-11 -1.05801e-11 0.45081 0.62803 -1.05801e-11 -1.10336e-11 3.6633 4.59146 2.66851 3.10059 4.59146 4.89425 3.10059 3.18838 2.66851 3.10059 1.51488 1.68833 3.10059 3.18838 1.68833 1.67984 4.89425 5.02865 3.18838 3.163 5.02865 5.05837 3.163 2.9965 3.18838 3.163 1.67984 1.60757 3.163 2.9965 1.60757 1.4624 1.51488 1.68833 0.62803 0.656959 1.68833 1.67984 0.656959 0.591826 0.62803 0.656959 -1.10336e-11 -1.42804e-11 0.656959 0.591826 -1.42804e-11 -1.82658e-11 1.67984 1.60757 0.591826 0.500126 1.60757 1.4624 0.500126 0.40871 0.591826 0.500126 -1.82658e-11 -2.36847e-11 0.500126 0.40871 -2.36847e-11 -3.5145e-11 17.9542 18.7083 14.3724 15.0377 18.7083 19.3171 15.0377 15.6753 14.3724 15.0377 11.081 11.7301 15.0377 15.6753 11.7301 12.4301 19.3171 19.8546 15.6753 16.3278 19.8546 20.4139 16.3278 17.0599 15.6753 16.3278 12.4301 13.173 16.3278 17.0599 13.173 14.0117 11.081 11.7301 7.91758 8.45099 11.7301 12.4301 8.45099 9.18128 7.91758 8.45099 5.05837 5.17093 8.45099 9.18128 5.17093 5.78857 12.4301 13.173 9.18128 9.99179 13.173 14.0117 9.99179 10.8518 9.18128 9.99179 5.78857 6.62654 9.99179 10.8518 6.62654 7.50052 20.4139 21.142 17.0599 17.9647 21.142 21.967 17.9647 18.9698 17.0599 17.9647 14.0117 14.9538 17.9647 18.9698 14.9538 15.9695 21.967 22.7605 18.9698 20.1125 22.7605 23.2117 20.1125 21.1872 18.9698 20.1125 15.9695 16.9871 20.1125 21.1872 16.9871 18.0091 14.0117 14.9538 10.8518 11.7422 14.9538 15.9695 11.7422 12.6926 10.8518 11.7422 7.50052 8.40126 11.7422 12.6926 8.40126 9.30843 15.9695 16.9871 12.6926 13.6522 16.9871 18.0091 13.6522 14.632 12.6926 13.6522 9.30843 10.1914 13.6522 14.632 10.1914 11.0999 5.05837 5.17093 2.9965 2.408 5.17093 5.78857 2.408 2.28358 2.9965 2.408 1.4624 1.0124 2.408 2.28358 1.0124 -1.11979 5.78857 6.62654 2.28358 3.18858 6.62654 7.50052 3.18858 4.07963 2.28358 3.18858 -1.11979 -0.211974 3.18858 4.07963 -0.211974 0.648512 1.4624 1.0124 0.40871 0.168406 1.0124 -1.11979 0.168406 0.861557 0.40871 0.168406 -3.5145e-11 -8.04299e-11 0.168406 0.861557 -8.04299e-11 -3.22257e-10 -1.11979 -0.211974 0.861557 -2.18415 -0.211974 0.648512 -2.18415 -2.24383 0.861557 -2.18415 -3.22257e-10 -2.62468e-09 -2.18415 -2.24383 -2.62468e-09 -1.42509e-09 7.50052 8.40126 4.07963 4.9654 8.40126 9.30843 4.9654 5.81454 4.07963 4.9654 0.648512 1.52398 4.9654 5.81454 1.52398 2.30882 9.30843 10.1914 5.81454 6.67496 10.1914 11.0999 6.67496 7.56874 5.81454 6.67496 2.30882 3.12333 6.67496 7.56874 3.12333 3.9812 0.648512 1.52398 -2.24383 -1.78961 1.52398 2.30882 -1.78961 -1.19923 -2.24383 -1.78961 -1.42509e-09 1.79763e-11 -1.78961 -1.19923 1.79763e-11 -7.53298e-12 2.30882 3.12333 -1.19923 -0.363067 3.12333 3.9812 -0.363067 0.58625 -1.19923 -0.363067 -7.53298e-12 -9.10491e-11 -0.363067 0.58625 -9.10491e-11 -7.67548e-11 23.2117 23.3236 21.1872 22.0502 23.3236 26.0705 22.0502 22.8961 21.1872 22.0502 18.0091 19.0677 22.0502 22.8961 19.0677 20.2473 26.0705 27.9576 22.8961 22.9714 27.9576 29.1222 22.9714 24.3379 22.8961 22.9714 20.2473 21.1468 22.9714 24.3379 21.1468 21.8563 18.0091 19.0677 14.632 15.6311 19.0677 20.2473 15.6311 16.6575 14.632 15.6311 11.0999 12.0681 15.6311 16.6575 12.0681 13.0147 20.2473 21.1468 16.6575 17.5777 21.1468 21.8563 17.5777 18.5074 16.6575 17.5777 13.0147 13.9246 17.5777 18.5074 13.9246 14.8341 29.1222 29.8914 24.3379 25.6534 29.8914 30.5765 25.6534 26.4702 24.3379 25.6534 21.8563 22.2061 25.6534 26.4702 22.2061 22.9161 30.5765 30.8405 26.4702 26.7767 30.8405 30.8608 26.7767 26.7811 26.4702 26.7767 22.9161 23.3867 26.7767 26.7811 23.3867 23.2541 21.8563 22.2061 18.5074 19.347 22.2061 22.9161 19.347 19.8435 18.5074 19.347 14.8341 15.8907 19.347 19.8435 15.8907 17.3834 22.9161 23.3867 19.8435 20.9432 23.3867 23.2541 20.9432 22.0846 19.8435 20.9432 17.3834 19.2603 20.9432 22.0846 19.2603 20.0338 11.0999 12.0681 7.56874 8.47929 12.0681 13.0147 8.47929 9.36352 7.56874 8.47929 3.9812 4.89191 8.47929 9.36352 4.89191 5.79934 13.0147 13.9246 9.36352 10.2516 13.9246 14.8341 10.2516 11.1779 9.36352 10.2516 5.79934 6.67655 10.2516 11.1779 6.67655 7.55668 3.9812 4.89191 0.58625 1.56254 4.89191 5.79934 1.56254 2.47065 0.58625 1.56254 -7.67548e-11 -5.50063e-11 1.56254 2.47065 -5.50063e-11 -4.67972e-11 5.79934 6.67655 2.47065 3.23793 6.67655 7.55668 3.23793 3.88055 2.47065 3.23793 -4.67972e-11 -4.12116e-11 3.23793 3.88055 -4.12116e-11 -3.69763e-11 14.8341 15.8907 11.1779 12.2907 15.8907 17.3834 12.2907 13.6867 11.1779 12.2907 7.55668 8.51506 12.2907 13.6867 8.51506 9.55987 17.3834 19.2603 13.6867 14.962 19.2603 20.0338 14.962 15.401 13.6867 14.962 9.55987 10.342 14.962 15.401 10.342 10.575 7.55668 8.51506 3.88055 4.44404 8.51506 9.55987 4.44404 4.95283 3.88055 4.44404 -3.69763e-11 -3.42584e-11 4.44404 4.95283 -3.42584e-11 -3.33176e-11 9.55987 10.342 4.95283 5.45292 10.342 10.575 5.45292 5.54149 4.95283 5.45292 -3.33176e-11 -3.16705e-11 5.45292 5.54149 -3.16705e-11 -3.1245e-11 0 -7.04901e-11 0 0.724013 -7.04901e-11 6.65608e-12 0.724013 1.47273 0 0.724013 0 2.04328 0.724013 1.47273 2.04328 4.09332 6.65608e-12 -4.68064e-10 1.47273 2.36576 -4.68064e-10 -5.00911e-10 2.36576 4.15488 1.47273 2.36576 4.09332 4.57027 2.36576 4.15488 4.57027 2.67474 0 2.04328 0 3.09016 2.04328 4.09332 3.09016 4.67564 0 3.09016 0 1.9666 3.09016 4.67564 1.9666 3.14364 4.09332 4.57027 4.67564 5.51759 4.57027 2.67474 5.51759 4.43169 4.67564 5.51759 3.14364 3.48057 5.51759 4.43169 3.48057 2.72991 -5.00911e-10 -4.1042e-10 4.15488 2.69709 -4.1042e-10 -5.3241e-11 2.69709 1.62291 4.15488 2.69709 2.67474 2.49943 2.69709 1.62291 2.49943 1.75337 -5.3241e-11 -3.97267e-11 1.62291 1.22309 -3.97267e-11 -2.60978e-11 1.22309 0.748167 1.62291 1.22309 1.75337 1.22379 1.22309 0.748167 1.22379 0.731596 2.67474 2.49943 4.43169 2.55029 2.49943 1.75337 2.55029 1.43161 4.43169 2.55029 2.72991 1.43989 2.55029 1.43161 1.43989 0.467653 1.75337 1.22379 1.43161 0.766245 1.22379 0.731596 0.766245 0.28559 1.43161 0.766245 0.467653 -0.160135 0.766245 0.28559 -0.160135 -0.581146 0 1.9666 0 0.934345 1.9666 3.14364 0.934345 1.43318 0 0.934345 0 -0.0402835 0.934345 1.43318 -0.0402835 -0.324259 3.14364 3.48057 1.43318 1.3123 3.48057 2.72991 1.3123 0.6081 1.43318 1.3123 -0.324259 -0.916722 1.3123 0.6081 -0.916722 -1.72821 0 -0.0402835 0 -1.00812 -0.0402835 -0.324259 -1.00812 -2.1646 0 -1.00812 0 -2.43599 -1.00812 -2.1646 -2.43599 -4.37274 -0.324259 -0.916722 -2.1646 -3.2347 -0.916722 -1.72821 -3.2347 -4.22224 -2.1646 -3.2347 -4.37274 -5.9036 -3.2347 -4.22224 -5.9036 -7.06164 2.72991 1.43989 0.6081 -0.361191 1.43989 0.467653 -0.361191 -1.18218 0.6081 -0.361191 -1.72821 -2.59462 -0.361191 -1.18218 -2.59462 -3.34044 0.467653 -0.160135 -1.18218 -1.76335 -0.160135 -0.581146 -1.76335 -2.16638 -1.18218 -1.76335 -3.34044 -3.94892 -1.76335 -2.16638 -3.94892 -4.47682 -1.72821 -2.59462 -4.22224 -5.10267 -2.59462 -3.34044 -5.10267 -5.85272 -4.22224 -5.10267 -7.06164 -7.91993 -5.10267 -5.85272 -7.91993 -8.6056 -3.34044 -3.94892 -5.85272 -6.51847 -3.94892 -4.47682 -6.51847 -7.20222 -5.85272 -6.51847 -8.6056 -9.24985 -6.51847 -7.20222 -9.24985 -9.98087 -2.60978e-11 -1.79445e-11 0.748167 0.290151 -1.79445e-11 -1.3407e-11 0.290151 -0.130685 0.748167 0.290151 0.731596 0.208099 0.290151 -0.130685 0.208099 -0.39873 -1.3407e-11 -1.05801e-11 -0.130685 -0.45081 -1.05801e-11 -1.10336e-11 -0.45081 -0.62803 -0.130685 -0.45081 -0.39873 -1.04134 -0.45081 -0.62803 -1.04134 -1.51488 0.731596 0.208099 0.28559 -0.180995 0.208099 -0.39873 -0.180995 -0.756738 0.28559 -0.180995 -0.581146 -0.927469 -0.180995 -0.756738 -0.927469 -1.33385 -0.39873 -1.04134 -0.756738 -1.63296 -1.04134 -1.51488 -1.63296 -2.66851 -0.756738 -1.63296 -1.33385 -2.0518 -1.63296 -2.66851 -2.0518 -3.6633 -1.10336e-11 -1.42804e-11 -0.62803 -0.656959 -1.42804e-11 -1.82658e-11 -0.656959 -0.591826 -0.62803 -0.656959 -1.51488 -1.68833 -0.656959 -0.591826 -1.68833 -1.67984 -1.82658e-11 -2.36847e-11 -0.591826 -0.500126 -2.36847e-11 -3.5145e-11 -0.500126 -0.40871 -0.591826 -0.500126 -1.67984 -1.60757 -0.500126 -0.40871 -1.60757 -1.4624 -1.51488 -1.68833 -2.66851 -3.10059 -1.68833 -1.67984 -3.10059 -3.18838 -2.66851 -3.10059 -3.6633 -4.59146 -3.10059 -3.18838 -4.59146 -4.89425 -1.67984 -1.60757 -3.18838 -3.163 -1.60757 -1.4624 -3.163 -2.9965 -3.18838 -3.163 -4.89425 -5.02865 -3.163 -2.9965 -5.02865 -5.05837 -0.581146 -0.927469 -2.16638 -2.5319 -0.927469 -1.33385 -2.5319 -3.00758 -2.16638 -2.5319 -4.47682 -5.06523 -2.5319 -3.00758 -5.06523 -5.83878 -1.33385 -2.0518 -3.00758 -3.87039 -2.0518 -3.6633 -3.87039 -5.25834 -3.00758 -3.87039 -5.83878 -6.86097 -3.87039 -5.25834 -6.86097 -8.01257 -4.47682 -5.06523 -7.20222 -7.97084 -5.06523 -5.83878 -7.97084 -8.87919 -7.20222 -7.97084 -9.98087 -10.8506 -7.97084 -8.87919 -10.8506 -11.8232 -5.83878 -6.86097 -8.87919 -9.88796 -6.86097 -8.01257 -9.88796 -10.9459 -8.87919 -9.88796 -11.8232 -12.8527 -9.88796 -10.9459 -12.8527 -13.8972 -3.6633 -4.59146 -5.25834 -6.46322 -4.59146 -4.89425 -6.46322 -7.09762 -5.25834 -6.46322 -8.01257 -9.06318 -6.46322 -7.09762 -9.06318 -9.85103 -4.89425 -5.02865 -7.09762 -7.51619 -5.02865 -5.05837 -7.51619 -7.91758 -7.09762 -7.51619 -9.85103 -10.4827 -7.51619 -7.91758 -10.4827 -11.081 -8.01257 -9.06318 -10.9459 -11.9589 -9.06318 -9.85103 -11.9589 -12.8659 -10.9459 -11.9589 -13.8972 -14.9511 -11.9589 -12.8659 -14.9511 -16.0262 -9.85103 -10.4827 -12.8659 -13.6644 -10.4827 -11.081 -13.6644 -14.3724 -12.8659 -13.6644 -16.0262 -17.0531 -13.6644 -14.3724 -17.0531 -17.9542 -3.5145e-11 -8.04299e-11 -0.40871 -0.168406 -8.04299e-11 -3.22257e-10 -0.168406 -0.861557 -0.40871 -0.168406 -1.4624 -1.0124 -0.168406 -0.861557 -1.0124 1.11979 -3.22257e-10 -2.62468e-09 -0.861557 2.18415 -2.62468e-09 -1.42509e-09 2.18415 2.24383 -0.861557 2.18415 1.11979 0.211974 2.18415 2.24383 0.211974 -0.648512 -1.4624 -1.0124 -2.9965 -2.408 -1.0124 1.11979 -2.408 -2.28358 -2.9965 -2.408 -5.05837 -5.17093 -2.408 -2.28358 -5.17093 -5.78857 1.11979 0.211974 -2.28358 -3.18858 0.211974 -0.648512 -3.18858 -4.07963 -2.28358 -3.18858 -5.78857 -6.62654 -3.18858 -4.07963 -6.62654 -7.50052 -1.42509e-09 1.79763e-11 2.24383 1.78961 1.79763e-11 -7.53298e-12 1.78961 1.19923 2.24383 1.78961 -0.648512 -1.52398 1.78961 1.19923 -1.52398 -2.30882 -7.53298e-12 -9.10491e-11 1.19923 0.363067 -9.10491e-11 -7.67548e-11 0.363067 -0.58625 1.19923 0.363067 -2.30882 -3.12333 0.363067 -0.58625 -3.12333 -3.9812 -0.648512 -1.52398 -4.07963 -4.9654 -1.52398 -2.30882 -4.9654 -5.81454 -4.07963 -4.9654 -7.50052 -8.40126 -4.9654 -5.81454 -8.40126 -9.30843 -2.30882 -3.12333 -5.81454 -6.67496 -3.12333 -3.9812 -6.67496 -7.56874 -5.81454 -6.67496 -9.30843 -10.1914 -6.67496 -7.56874 -10.1914 -11.0999 -5.05837 -5.17093 -7.91758 -8.45099 -5.17093 -5.78857 -8.45099 -9.18128 -7.91758 -8.45099 -11.081 -11.7301 -8.45099 -9.18128 -11.7301 -12.4301 -5.78857 -6.62654 -9.18128 -9.99179 -6.62654 -7.50052 -9.99179 -10.8518 -9.18128 -9.99179 -12.4301 -13.173 -9.99179 -10.8518 -13.173 -14.0117 -11.081 -11.7301 -14.3724 -15.0377 -11.7301 -12.4301 -15.0377 -15.6753 -14.3724 -15.0377 -17.9542 -18.7083 -15.0377 -15.6753 -18.7083 -19.3171 -12.4301 -13.173 -15.6753 -16.3278 -13.173 -14.0117 -16.3278 -17.0599 -15.6753 -16.3278 -19.3171 -19.8546 -16.3278 -17.0599 -19.8546 -20.4139 -7.50052 -8.40126 -10.8518 -11.7422 -8.40126 -9.30843 -11.7422 -12.6926 -10.8518 -11.7422 -14.0117 -14.9538 -11.7422 -12.6926 -14.9538 -15.9695 -9.30843 -10.1914 -12.6926 -13.6522 -10.1914 -11.0999 -13.6522 -14.632 -12.6926 -13.6522 -15.9695 -16.9871 -13.6522 -14.632 -16.9871 -18.0091 -14.0117 -14.9538 -17.0599 -17.9647 -14.9538 -15.9695 -17.9647 -18.9698 -17.0599 -17.9647 -20.4139 -21.142 -17.9647 -18.9698 -21.142 -21.967 -15.9695 -16.9871 -18.9698 -20.1125 -16.9871 -18.0091 -20.1125 -21.1872 -18.9698 -20.1125 -21.967 -22.7605 -20.1125 -21.1872 -22.7605 -23.2117 -7.67548e-11 -5.50063e-11 -0.58625 -1.56254 -5.50063e-11 -4.67972e-11 -1.56254 -2.47065 -0.58625 -1.56254 -3.9812 -4.89191 -1.56254 -2.47065 -4.89191 -5.79934 -4.67972e-11 -4.12116e-11 -2.47065 -3.23793 -4.12116e-11 -3.69763e-11 -3.23793 -3.88055 -2.47065 -3.23793 -5.79934 -6.67655 -3.23793 -3.88055 -6.67655 -7.55668 -3.9812 -4.89191 -7.56874 -8.47929 -4.89191 -5.79934 -8.47929 -9.36352 -7.56874 -8.47929 -11.0999 -12.0681 -8.47929 -9.36352 -12.0681 -13.0147 -5.79934 -6.67655 -9.36352 -10.2516 -6.67655 -7.55668 -10.2516 -11.1779 -9.36352 -10.2516 -13.0147 -13.9246 -10.2516 -11.1779 -13.9246 -14.8341 -3.69763e-11 -3.42584e-11 -3.88055 -4.44404 -3.42584e-11 -3.33176e-11 -4.44404 -4.95283 -3.88055 -4.44404 -7.55668 -8.51506 -4.44404 -4.95283 -8.51506 -9.55987 -3.33176e-11 -3.16705e-11 -4.95283 -5.45292 -3.16705e-11 -3.1245e-11 -5.45292 -5.54149 -4.95283 -5.45292 -9.55987 -10.342 -5.45292 -5.54149 -10.342 -10.575 -7.55668 -8.51506 -11.1779 -12.2907 -8.51506 -9.55987 -12.2907 -13.6867 -11.1779 -12.2907 -14.8341 -15.8907 -12.2907 -13.6867 -15.8907 -17.3834 -9.55987 -10.342 -13.6867 -14.962 -10.342 -10.575 -14.962 -15.401 -13.6867 -14.962 -17.3834 -19.2603 -14.962 -15.401 -19.2603 -20.0338 -11.0999 -12.0681 -14.632 -15.6311 -12.0681 -13.0147 -15.6311 -16.6575 -14.632 -15.6311 -18.0091 -19.0677 -15.6311 -16.6575 -19.0677 -20.2473 -13.0147 -13.9246 -16.6575 -17.5777 -13.9246 -14.8341 -17.5777 -18.5074 -16.6575 -17.5777 -20.2473 -21.1468 -17.5777 -18.5074 -21.1468 -21.8563 -18.0091 -19.0677 -21.1872 -22.0502 -19.0677 -20.2473 -22.0502 -22.8961 -21.1872 -22.0502 -23.2117 -23.3236 -22.0502 -22.8961 -23.3236 -26.0705 -20.2473 -21.1468 -22.8961 -22.9714 -21.1468 -21.8563 -22.9714 -24.3379 -22.8961 -22.9714 -26.0705 -27.9576 -22.9714 -24.3379 -27.9576 -29.1222 -14.8341 -15.8907 -18.5074 -19.347 -15.8907 -17.3834 -19.347 -19.8435 -18.5074 -19.347 -21.8563 -22.2061 -19.347 -19.8435 -22.2061 -22.9161 -17.3834 -19.2603 -19.8435 -20.9432 -19.2603 -20.0338 -20.9432 -22.0846 -19.8435 -20.9432 -22.9161 -23.3867 -20.9432 -22.0846 -23.3867 -23.2541 -21.8563 -22.2061 -24.3379 -25.6534 -22.2061 -22.9161 -25.6534 -26.4702 -24.3379 -25.6534 -29.1222 -29.8914 -25.6534 -26.4702 -29.8914 -30.5765 -22.9161 -23.3867 -26.4702 -26.7767 -23.3867 -23.2541 -26.7767 -26.7811 -26.4702 -26.7767 -30.5765 -30.8405 -26.7767 -26.7811 -30.8405 -30.8608 
SCALARS y_displacement double 1
LOOKUP_TABLE default