# vtk DataFile Version 3.0
#This file was generated by the deal.II library on 2015/9/2 at 7:53:19
ASCII
DATASET UNSTRUCTURED_GRID

POINTS 6584 double
0 0 0
0.05 0 0
0 0.05 0
0.05 0.05 0
0.05 0 0
0.1 0 0
0.05 0.05 0
0.1 0.05 0
0.1 0 0
0.15 0 0
0.1 0.05 0
0.15 0.05 0
0.15 0 0
0.2 0 0
0.15 0.05 0
0.2 0.05 0
0.2 0 0
0.25 0 0
0.2 0.05 0
0.25 0.05 0
0.25 0 0
0.3 0 0
0.25 0.05 0
0.3 0.05 0
0.3 0 0
0.35 0 0
0.3 0.05 0
0.35 0.05 0
0.35 0 0
0.4 0 0
0.35 0.05 0
0.4 0.05 0
0.4 0 0
0.45 0 0
0.4 0.05 0
0.45 0.05 0
0.45 0 0
0.5 0 0
0.45 0.05 0
0.5 0.05 0
0.5 0 0
0.55 0 0
0.5 0.05 0
0.55 0.05 0
0.55 0 0
0.6 0 0
0.55 0.05 0
0.6 0.05 0
0.6 0 0
0.65 0 0
0.6 0.05 0
0.65 0.05 0
0.65 0 0
0.7 0 0
0.65 0.05 0
0.7 0.05 0
0.7 0 0
0.75 0 0
0.7 0.05 0
0.75 0.05 0
0.75 0 0
0.8 0 0
0.75 0.05 0
0.8 0.05 0
0.8 0 0
0.85 0 0
0.8 0.05 0
0.85 0.05 0
0.85 0 0
0.9 0 0
0.85 0.05 0
0.9 0.05 0
0.9 0 0
0.95 0 0
0.9 0.05 0
0.95 0.05 0
0.95 0 0
1 0 0
0.95 0.05 0
1 0.05 0
1 0 0
1.05 0 0
1 0.05 0
1.05 0.05 0
1.05 0 0
1.1 0 0
1.05 0.05 0
1.1 0.05 0
1.1 0 0
1.15 0 0
1.1 0.05 0
1.15 0.05 0
1.15 0 0
1.2 0 0
1.15 0.05 0
1.2 0.05 0
1.2 0 0
1.25 0 0
1.2 0.05 0
1.25 0.05 0
1.25 0 0
1.3 0 0
1.25 0.05 0
1.3 0.05 0
1.4 0 0
1.45 0 0
1.4 0.05 0
1.45 0.05 0
1.45 0 0
1.5 0 0
1.45 0.05 0
1.5 0.05 0
1.5 0 0
1.55 0 0
1.5 0.05 0
1.55 0.05 0
1.55 0 0
1.6 0 0
1.55 0.05 0
1.6 0.05 0
1.6 0 0
1.65 0 0
1.6 0.05 0
1.65 0.05 0
1.65 0 0
1.7 0 0
1.65 0.05 0
1.7 0.05 0
1.7 0 0
1.75 0 0
1.7 0.05 0
1.75 0.05 0
1.75 0 0
1.8 0 0
1.75 0.05 0
1.8 0.05 0
1.8 0 0
1.85 0 0
1.8 0.05 0
1.85 0.05 0
1.85 0 0
1.9 0 0
1.85 0.05 0
1.9 0.05 0
1.9 0 0
1.95 0 0
1.9 0.05 0
1.95 0.05 0
1.95 0 0
2 0 0
1.95 0.05 0
2 0.05 0
0 0.05 0
0.05 0.05 0
0 0.1 0
0.05 0.1 0
0.05 0.05 0
0.1 0.05 0
0.05 0.1 0
0.1 0.1 0
0.1 0.05 0
0.15 0.05 0
0.1 0.1 0
0.15 0.1 0
0.15 0.05 0
0.2 0.05 0
0.15 0.1 0
0.2 0.1 0
0.2 0.05 0
0.25 0.05 0
0.2 0.1 0
0.25 0.1 0
0.25 0.05 0
0.3 0.05 0
0.25 0.1 0
0.3 0.1 0
0.3 0.05 0
0.35 0.05 0
0.3 0.1 0
0.35 0.1 0
0.35 0.05 0
0.4 0.05 0
0.35 0.1 0
0.4 0.1 0
0.4 0.05 0
0.45 0.05 0
0.4 0.1 0
0.45 0.1 0
1.1 0.05 0
1.15 0.05 0
1.1 0.1 0
1.15 0.1 0
1.15 0.05 0
1.2 0.05 0
1.15 0.1 0
1.2 0.1 0
1.2 0.05 0
1.25 0.05 0
1.2 0.1 0
1.25 0.1 0
1.25 0.05 0
1.3 0.05 0
1.25 0.1 0
1.3 0.1 0
1.3 0.05 0
1.35 0.05 0
1.3 0.1 0
1.35 0.1 0
1.5 0.05 0
1.55 0.05 0
1.5 0.1 0
1.55 0.1 0
1.55 0.05 0
1.6 0.05 0
1.55 0.1 0
1.6 0.1 0
1.6 0.05 0
1.65 0.05 0
1.6 0.1 0
1.65 0.1 0
1.65 0.05 0
1.7 0.05 0
1.65 0.1 0
1.7 0.1 0
1.7 0.05 0
1.75 0.05 0
1.7 0.1 0
1.75 0.1 0
1.75 0.05 0
1.8 0.05 0
1.75 0.1 0
1.8 0.1 0
1.8 0.05 0
1.85 0.05 0
1.8 0.1 0
1.85 0.1 0
1.85 0.05 0
1.9 0.05 0
1.85 0.1 0
1.9 0.1 0
1.9 0.05 0
1.95 0.05 0
1.9 0.1 0
1.95 0.1 0
1.95 0.05 0
2 0.05 0
1.95 0.1 0
2 0.1 0
0.1 0.1 0
0.15 0.1 0
0.1 0.15 0
0.15 0.15 0
0.15 0.1 0
0.2 0.1 0
0.15 0.15 0
0.2 0.15 0
0.2 0.1 0
0.25 0.1 0
0.2 0.15 0
0.25 0.15 0
0.25 0.1 0
0.3 0.1 0
0.25 0.15 0
0.3 0.15 0
0.3 0.1 0
0.35 0.1 0
0.3 0.15 0
0.35 0.15 0
0.35 0.1 0
0.4 0.1 0
0.35 0.15 0
0.4 0.15 0
1.15 0.1 0
1.2 0.1 0
1.15 0.15 0
1.2 0.15 0
1.2 0.1 0
1.25 0.1 0
1.2 0.15 0
1.25 0.15 0
1.3 0.1 0
1.35 0.1 0
1.3 0.15 0
1.35 0.15 0
1.35 0.1 0
1.4 0.1 0
1.35 0.15 0
1.4 0.15 0
1.4 0.1 0
1.45 0.1 0
1.4 0.15 0
1.45 0.15 0
1.6 0.1 0
1.65 0.1 0
1.6 0.15 0
1.65 0.15 0
1.65 0.1 0
1.7 0.1 0
1.65 0.15 0
1.7 0.15 0
1.7 0.1 0
1.75 0.1 0
1.7 0.15 0
1.75 0.15 0
1.75 0.1 0
1.8 0.1 0
1.75 0.15 0
1.8 0.15 0
1.8 0.1 0
1.85 0.1 0
1.8 0.15 0
1.85 0.15 0
1.85 0.1 0
1.9 0.1 0
1.85 0.15 0
1.9 0.15 0
1.9 0.1 0
1.95 0.1 0
1.9 0.15 0
1.95 0.15 0
1.95 0.1 0
2 0.1 0
1.95 0.15 0
2 0.15 0
0.2 0.15 0
0.25 0.15 0
0.2 0.2 0
0.25 0.2 0
0.25 0.15 0
0.3 0.15 0
0.25 0.2 0
0.3 0.2 0
0.3 0.15 0
0.35 0.15 0
0.3 0.2 0
0.35 0.2 0
0.35 0.15 0
0.4 0.15 0
0.35 0.2 0
0.4 0.2 0
0.4 0.15 0
0.45 0.15 0
0.4 0.2 0
0.45 0.2 0
0.6 0.15 0
0.65 0.15 0
0.6 0.2 0
0.65 0.2 0
0.65 0.15 0
0.7 0.15 0
0.65 0.2 0
0.7 0.2 0
0.7 0.15 0
0.75 0.15 0
0.7 0.2 0
0.75 0.2 0
0.75 0.15 0
0.8 0.15 0
0.75 0.2 0
0.8 0.2 0
0.8 0.15 0
0.85 0.15 0
0.8 0.2 0
0.85 0.2 0
0.85 0.15 0
0.9 0.15 0
0.85 0.2 0
0.9 0.2 0
0.9 0.15 0
0.95 0.15 0
0.9 0.2 0
0.95 0.2 0
0.95 0.15 0
1 0.15 0
0.95 0.2 0
1 0.2 0
1 0.15 0
1.05 0.15 0
1 0.2 0
1.05 0.2 0
1.15 0.15 0
1.2 0.15 0
1.15 0.2 0
1.2 0.2 0
1.4 0.15 0
1.45 0.15 0
1.4 0.2 0
1.45 0.2 0
1.45 0.15 0
1.5 0.15 0
1.45 0.2 0
1.5 0.2 0
1.65 0.15 0
1.7 0.15 0
1.65 0.2 0
1.7 0.2 0
1.7 0.15 0
1.75 0.15 0
1.7 0.2 0
1.75 0.2 0
1.75 0.15 0
1.8 0.15 0
1.75 0.2 0
1.8 0.2 0
1.8 0.15 0
1.85 0.15 0
1.8 0.2 0
1.85 0.2 0
1.85 0.15 0
1.9 0.15 0
1.85 0.2 0
1.9 0.2 0
1.9 0.15 0
1.95 0.15 0
1.9 0.2 0
1.95 0.2 0
1.95 0.15 0
2 0.15 0
1.95 0.2 0
2 0.2 0
0 0.2 0
0.05 0.2 0
0 0.25 0
0.05 0.25 0
0.05 0.2 0
0.1 0.2 0
0.05 0.25 0
0.1 0.25 0
0.3 0.2 0
0.35 0.2 0
0.3 0.25 0
0.35 0.25 0
0.35 0.2 0
0.4 0.2 0
0.35 0.25 0
0.4 0.25 0
0.4 0.2 0
0.45 0.2 0
0.4 0.25 0
0.45 0.25 0
0.45 0.2 0
0.5 0.2 0
0.45 0.25 0
0.5 0.25 0
0.7 0.2 0
0.75 0.2 0
0.7 0.25 0
0.75 0.25 0
0.75 0.2 0
0.8 0.2 0
0.75 0.25 0
0.8 0.25 0
0.8 0.2 0
0.85 0.2 0
0.8 0.25 0
0.85 0.25 0
0.85 0.2 0
0.9 0.2 0
0.85 0.25 0
0.9 0.25 0
0.9 0.2 0
0.95 0.2 0
0.9 0.25 0
0.95 0.25 0
0.95 0.2 0
1 0.2 0
0.95 0.25 0
1 0.25 0
1 0.2 0
1.05 0.2 0
1 0.25 0
1.05 0.25 0
1.1 0.2 0
1.15 0.2 0
1.1 0.25 0
1.15 0.25 0
1.25 0.2 0
1.3 0.2 0
1.25 0.25 0
1.3 0.25 0
1.45 0.2 0
1.5 0.2 0
1.45 0.25 0
1.5 0.25 0
1.5 0.2 0
1.55 0.2 0
1.5 0.25 0
1.55 0.25 0
1.55 0.2 0
1.6 0.2 0
1.55 0.25 0
1.6 0.25 0
1.75 0.2 0
1.8 0.2 0
1.75 0.25 0
1.8 0.25 0
1.8 0.2 0
1.85 0.2 0
1.8 0.25 0
1.85 0.25 0
1.85 0.2 0
1.9 0.2 0
1.85 0.25 0
1.9 0.25 0
1.9 0.2 0
1.95 0.2 0
1.9 0.25 0
1.95 0.25 0
1.95 0.2 0
2 0.2 0
1.95 0.25 0
2 0.25 0
0 0.25 0
0.05 0.25 0
0 0.3 0
0.05 0.3 0
0.05 0.25 0
0.1 0.25 0
0.05 0.3 0
0.1 0.3 0
0.1 0.25 0
0.15 0.25 0
0.1 0.3 0
0.15 0.3 0
0.15 0.25 0
0.2 0.25 0
0.15 0.3 0
0.2 0.3 0
0.4 0.25 0
0.45 0.25 0
0.4 0.3 0
0.45 0.3 0
0.45 0.25 0
0.5 0.25 0
0.45 0.3 0
0.5 0.3 0
0.5 0.25 0
0.55 0.25 0
0.5 0.3 0
0.55 0.3 0
0.55 0.25 0
0.6 0.25 0
0.55 0.3 0
0.6 0.3 0
0.85 0.25 0
0.9 0.25 0
0.85 0.3 0
0.9 0.3 0
0.9 0.25 0
0.95 0.25 0
0.9 0.3 0
0.95 0.3 0
0.95 0.25 0
1 0.25 0
0.95 0.3 0
1 0.3 0
1.2 0.25 0
1.25 0.25 0
1.2 0.3 0
1.25 0.3 0
1.25 0.25 0
1.3 0.25 0
1.25 0.3 0
1.3 0.3 0
1.3 0.25 0
1.35 0.25 0
1.3 0.3 0
1.35 0.3 0
1.35 0.25 0
1.4 0.25 0
1.35 0.3 0
1.4 0.3 0
1.55 0.25 0
1.6 0.25 0
1.55 0.3 0
1.6 0.3 0
1.6 0.25 0
1.65 0.25 0
1.6 0.3 0
1.65 0.3 0
1.65 0.25 0
1.7 0.25 0
1.65 0.3 0
1.7 0.3 0
1.85 0.25 0
1.9 0.25 0
1.85 0.3 0
1.9 0.3 0
1.9 0.25 0
1.95 0.25 0
1.9 0.3 0
1.95 0.3 0
1.95 0.25 0
2 0.25 0
1.95 0.3 0
2 0.3 0
0 0.3 0
0.05 0.3 0
0 0.35 0
0.05 0.35 0
0.05 0.3 0
0.1 0.3 0
0.05 0.35 0
0.1 0.35 0
0.1 0.3 0
0.15 0.3 0
0.1 0.35 0
0.15 0.35 0
0.15 0.3 0
0.2 0.3 0
0.15 0.35 0
0.2 0.35 0
0.2 0.3 0
0.25 0.3 0
0.2 0.35 0
0.25 0.35 0
0.25 0.3 0
0.3 0.3 0
0.25 0.35 0
0.3 0.35 0
0.5 0.3 0
0.55 0.3 0
0.5 0.35 0
0.55 0.35 0
0.55 0.3 0
0.6 0.3 0
0.55 0.35 0
0.6 0.35 0
0.6 0.3 0
0.65 0.3 0
0.6 0.35 0
0.65 0.35 0
0.65 0.3 0
0.7 0.3 0
0.65 0.35 0
0.7 0.35 0
0.95 0.3 0
1 0.3 0
0.95 0.35 0
1 0.35 0
1.05 0.3 0
1.1 0.3 0
1.05 0.35 0
1.1 0.35 0
1.2 0.3 0
1.25 0.3 0
1.2 0.35 0
1.25 0.35 0
1.25 0.3 0
1.3 0.3 0
1.25 0.35 0
1.3 0.35 0
1.3 0.3 0
1.35 0.3 0
1.3 0.35 0
1.35 0.35 0
1.35 0.3 0
1.4 0.3 0
1.35 0.35 0
1.4 0.35 0
1.4 0.3 0
1.45 0.3 0
1.4 0.35 0
1.45 0.35 0
1.45 0.3 0
1.5 0.3 0
1.45 0.35 0
1.5 0.35 0
1.65 0.3 0
1.7 0.3 0
1.65 0.35 0
1.7 0.35 0
1.7 0.3 0
1.75 0.3 0
1.7 0.35 0
1.75 0.35 0
1.95 0.3 0
2 0.3 0
1.95 0.35 0
2 0.35 0
0 0.35 0
0.05 0.35 0
0 0.4 0
0.05 0.4 0
0.05 0.35 0
0.1 0.35 0
0.05 0.4 0
0.1 0.4 0
0.1 0.35 0
0.15 0.35 0
0.1 0.4 0
0.15 0.4 0
0.15 0.35 0
0.2 0.35 0
0.15 0.4 0
0.2 0.4 0
0.2 0.35 0
0.25 0.35 0
0.2 0.4 0
0.25 0.4 0
0.25 0.35 0
0.3 0.35 0
0.25 0.4 0
0.3 0.4 0
0.3 0.35 0
0.35 0.35 0
0.3 0.4 0
0.35 0.4 0
0.35 0.35 0
0.4 0.35 0
0.35 0.4 0
0.4 0.4 0
0.6 0.35 0
0.65 0.35 0
0.6 0.4 0
0.65 0.4 0
0.65 0.35 0
0.7 0.35 0
0.65 0.4 0
0.7 0.4 0
0.7 0.35 0
0.75 0.35 0
0.7 0.4 0
0.75 0.4 0
0.75 0.35 0
0.8 0.35 0
0.75 0.4 0
0.8 0.4 0
0.8 0.35 0
0.85 0.35 0
0.8 0.4 0
0.85 0.4 0
1.15 0.35 0
1.2 0.35 0
1.15 0.4 0
1.2 0.4 0
1.2 0.35 0
1.25 0.35 0
1.2 0.4 0
1.25 0.4 0
1.25 0.35 0
1.3 0.35 0
1.25 0.4 0
1.3 0.4 0
1.3 0.35 0
1.35 0.35 0
1.3 0.4 0
1.35 0.4 0
1.35 0.35 0
1.4 0.35 0
1.35 0.4 0
1.4 0.4 0
1.4 0.35 0
1.45 0.35 0
1.4 0.4 0
1.45 0.4 0
1.45 0.35 0
1.5 0.35 0
1.45 0.4 0
1.5 0.4 0
1.5 0.35 0
1.55 0.35 0
1.5 0.4 0
1.55 0.4 0
1.7 0.35 0
1.75 0.35 0
1.7 0.4 0
1.75 0.4 0
1.75 0.35 0
1.8 0.35 0
1.75 0.4 0
1.8 0.4 0
1.8 0.35 0
1.85 0.35 0
1.8 0.4 0
1.85 0.4 0
0 0.4 0
0.05 0.4 0
0 0.45 0
0.05 0.45 0
0.05 0.4 0
0.1 0.4 0
0.05 0.45 0
0.1 0.45 0
0.1 0.4 0
0.15 0.4 0
0.1 0.45 0
0.15 0.45 0
0.15 0.4 0
0.2 0.4 0
0.15 0.45 0
0.2 0.45 0
0.2 0.4 0
0.25 0.4 0
0.2 0.45 0
0.25 0.45 0
0.25 0.4 0
0.3 0.4 0
0.25 0.45 0
0.3 0.45 0
0.3 0.4 0
0.35 0.4 0
0.3 0.45 0
0.35 0.45 0
0.35 0.4 0
0.4 0.4 0
0.35 0.45 0
0.4 0.45 0
0.4 0.4 0
0.45 0.4 0
0.4 0.45 0
0.45 0.45 0
0.45 0.4 0
0.5 0.4 0
0.45 0.45 0
0.5 0.45 0
0.5 0.4 0
0.55 0.4 0
0.5 0.45 0
0.55 0.45 0
0.7 0.4 0
0.75 0.4 0
0.7 0.45 0
0.75 0.45 0
0.75 0.4 0
0.8 0.4 0
0.75 0.45 0
0.8 0.45 0
0.8 0.4 0
0.85 0.4 0
0.8 0.45 0
0.85 0.45 0
0.85 0.4 0
0.9 0.4 0
0.85 0.45 0
0.9 0.45 0
0.9 0.4 0
0.95 0.4 0
0.9 0.45 0
0.95 0.45 0
0.95 0.4 0
1 0.4 0
0.95 0.45 0
1 0.45 0
1 0.4 0
1.05 0.4 0
1 0.45 0
1.05 0.45 0
1.15 0.4 0
1.2 0.4 0
1.15 0.45 0
1.2 0.45 0
1.2 0.4 0
1.25 0.4 0
1.2 0.45 0
1.25 0.45 0
1.25 0.4 0
1.3 0.4 0
1.25 0.45 0
1.3 0.45 0
1.3 0.4 0
1.35 0.4 0
1.3 0.45 0
1.35 0.45 0
1.35 0.4 0
1.4 0.4 0
1.35 0.45 0
1.4 0.45 0
1.4 0.4 0
1.45 0.4 0
1.4 0.45 0
1.45 0.45 0
1.45 0.4 0
1.5 0.4 0
1.45 0.45 0
1.5 0.45 0
1.5 0.4 0
1.55 0.4 0
1.5 0.45 0
1.55 0.45 0
1.55 0.4 0
1.6 0.4 0
1.55 0.45 0
1.6 0.45 0
1.6 0.4 0
1.65 0.4 0
1.6 0.45 0
1.65 0.45 0
1.8 0.4 0
1.85 0.4 0
1.8 0.45 0
1.85 0.45 0
1.85 0.4 0
1.9 0.4 0
1.85 0.45 0
1.9 0.45 0
1.9 0.4 0
1.95 0.4 0
1.9 0.45 0
1.95 0.45 0
0 0.45 0
0.05 0.45 0
0 0.5 0
0.05 0.5 0
0.05 0.45 0
0.1 0.45 0
0.05 0.5 0
0.1 0.5 0
0.1 0.45 0
0.15 0.45 0
0.1 0.5 0
0.15 0.5 0
0.15 0.45 0
0.2 0.45 0
0.15 0.5 0
0.2 0.5 0
0.2 0.45 0
0.25 0.45 0
[...]
POINT_DATA 6584
SCALARS x_displacement double 1
LOOKUP_TABLE default
0 1.3771 0 0.795926 1.3771 2.42382 0.795926 1.63711 2.42382 3.29472 1.63711 2.38162 3.29472 4.04019 2.38162 3.04206 4.04019 4.69448 3.04206 3.63646 4.69448 5.29567 3.63646 4.17875 5.29567 5.88594 4.17875 4.68564 5.88594 6.49497 4.68564 5.18781 6.49497 7.13818 5.18781 5.69046 7.13818 7.80423 5.69046 6.20603 7.80423 8.46686 6.20603 6.73336 8.46686 9.08879 6.73336 7.2896 9.08879 9.65802 7.2896 7.87366 9.65802 10.1963 7.87366 8.48209 10.1963 10.7347 8.48209 9.09939 10.7347 11.2818 9.09939 9.7159 11.2818 11.8373 9.7159 10.3313 11.8373 12.401 10.3313 10.9459 12.401 12.9728 10.9459 11.56 12.9728 13.5522 11.56 12.1728 13.5522 14.1563 12.1728 12.7666 14.1563 14.8305 12.7666 13.319 14.8305 15.5629 13.319 13.8499 15.5629 16.2584 13.8499 14.3275 16.2584 16.7801 14.3275 14.7254 16.7801 17.0619 14.7254 15.0482 17.9866 17.7371 15.6921 15.8524 17.7371 17.5482 15.8524 16.2721 17.5482 18.1952 16.2721 15.8398 18.1952 18.7302 15.8398 15.9571 18.7302 19.1026 15.9571 16.6409 19.1026 19.58 16.6409 16.85 19.58 19.7137 16.85 17.1466 19.7137 19.7934 17.1466 17.4319 19.7934 19.8714 17.4319 17.6219 19.8714 19.9069 17.6219 17.7259 19.9069 19.9039 17.7259 17.7633 19.9039 19.8976 17.7633 17.7701 0 0.795926 0 0.528921 0.795926 1.63711 0.528921 1.09375 1.63711 2.38162 1.09375 1.65826 2.38162 3.04206 1.65826 2.19589 3.04206 3.63646 2.19589 2.69231 3.63646 4.17875 2.69231 3.14231 4.17875 4.68564 3.14231 3.53427 4.68564 5.18781 3.53427 3.86345 5.18781 5.69046 3.86345 4.24356 13.319 13.8499 11.9469 12.2695 13.8499 14.3275 12.2695 12.5408 14.3275 14.7254 12.5408 12.8255 14.7254 15.0482 12.8255 13.0947 15.0482 15.3712 13.0947 13.3627 16.2721 15.8398 14.268 14.4872 15.8398 15.9571 14.4872 15.1765 15.9571 16.6409 15.1765 12.8191 16.6409 16.85 12.8191 14.2754 16.85 17.1466 14.2754 14.901 17.1466 17.4319 14.901 15.2726 17.4319 17.6219 15.2726 15.5364 17.6219 17.7259 15.5364 15.666 17.7259 17.7633 15.666 15.7052 17.7633 17.7701 15.7052 15.7111 1.09375 1.65826 0.599007 1.0235 1.65826 2.19589 1.0235 1.43653 2.19589 2.69231 1.43653 1.84747 2.69231 3.14231 1.84747 2.22308 3.14231 3.53427 2.22308 2.54124 3.53427 3.86345 2.54124 2.78067 12.2695 12.5408 10.7163 10.7263 12.5408 12.8255 10.7263 10.7751 13.0947 13.3627 11.0262 11.3204 13.3627 13.607 11.3204 11.6018 13.607 13.9149 11.6018 11.9025 15.1765 12.8191 12.6473 13.4035 12.8191 14.2754 13.4035 12.9941 14.2754 14.901 12.9941 13.2082 14.901 15.2726 13.2082 13.4055 15.2726 15.5364 13.4055 13.6051 15.5364 15.666 13.6051 13.7078 15.666 15.7052 13.7078 13.794 15.7052 15.7111 13.794 13.7729 1.43653 1.84747 0.728941 1.08777 1.84747 2.22308 1.08777 1.40419 2.22308 2.54124 1.40419 1.71905 2.54124 2.78067 1.71905 2.03382 2.78067 3.09038 2.03382 2.34594 3.3909 3.66135 3.26222 3.50711 3.66135 4.44283 3.50711 4.44338 4.44283 6.2338 4.44338 3.61304 6.2338 6.69337 3.61304 7.97029 6.69337 7.8381 7.97029 6.50953 7.8381 8.44411 6.50953 6.97092 8.44411 9.09989 6.97092 8.39483 9.09989 9.88724 8.39483 9.99257 9.88724 11.348 9.99257 9.17526 10.7163 10.7263 9.07479 9.01651 11.6018 11.9025 9.56669 9.8648 11.9025 12.1936 9.8648 10.1657 13.4035 12.9941 11.1114 11.3626 12.9941 13.2082 11.3626 11.691 13.2082 13.4055 11.691 11.2949 13.4055 13.6051 11.2949 11.5438 13.6051 13.7078 11.5438 11.9523 13.7078 13.794 11.9523 12.0407 13.794 13.7729 12.0407 11.9801 0 -0.213029 0 -0.221457 -0.213029 0.0537808 -0.221457 -0.765238 1.40419 1.71905 0.637429 0.961008 1.71905 2.03382 0.961008 1.26603 2.03382 2.34594 1.26603 1.58902 2.34594 2.65698 1.58902 1.91649 4.44338 3.61304 3.34498 3.87535 3.61304 7.97029 3.87535 2.67133 7.97029 6.50953 2.67133 4.89074 6.50953 6.97092 4.89074 3.78484 6.97092 8.39483 3.78484 3.72134 8.39483 9.99257 3.72134 7.28114 9.99257 9.17526 7.28114 7.43724 9.04995 9.07479 7.49874 7.50565 8.81366 8.89691 7.43252 6.46785 9.8648 10.1657 7.87039 8.18045 10.1657 10.4453 8.18045 8.46374 10.4453 10.7737 8.46374 8.76674 11.691 11.2949 9.71755 9.95465 11.2949 11.5438 9.95465 10.4195 11.5438 11.9523 10.4195 9.86362 11.9523 12.0407 9.86362 10.585 12.0407 11.9801 10.585 10.3762 0 -0.221457 0 -0.0610255 -0.221457 -0.765238 -0.0610255 -0.067743 -0.765238 -0.175792 -0.067743 -0.198487 -0.175792 0.0279462 -0.198487 -0.694878 1.26603 1.58902 0.49502 0.834108 1.58902 1.91649 0.834108 1.15516 1.91649 2.22356 1.15516 1.50417 2.22356 2.56126 1.50417 1.85578 4.89074 3.78484 3.67904 4.23835 3.78484 3.72134 4.23835 5.14421 3.72134 7.28114 5.14421 5.88771 7.54222 7.43252 5.7515 5.48326 7.43252 6.46785 5.48326 5.64627 6.46785 7.43748 5.64627 5.53349 7.43748 7.53556 5.53349 5.49706 8.46374 8.76674 6.46293 6.77857 8.76674 9.04353 6.77857 7.05429 9.04353 9.33507 7.05429 7.3592 10.4195 9.86362 8.32618 8.55713 9.86362 10.585 8.55713 8.84856 10.585 10.3762 8.84856 10.8971 0 -0.0610255 0 -0.016274 -0.0610255 -0.067743 -0.016274 -0.130982 -0.067743 -0.198487 -0.130982 -0.147481 -0.198487 -0.694878 -0.147481 -0.13134 -0.694878 -0.335847 -0.13134 -0.362851 -0.335847 -0.123048 -0.362851 -0.871249 1.15516 1.50417 0.420038 0.807649 1.50417 1.85578 0.807649 1.1256 1.85578 2.1942 1.1256 1.45658 2.1942 2.58088 1.45658 1.78147 5.14421 5.88771 3.53475 4.14073 5.79245 5.82373 4.18436 4.20191 5.7515 5.48326 4.4687 4.06056 5.48326 5.64627 4.06056 3.98759 5.64627 5.53349 3.98759 4.14332 5.53349 5.49706 4.14332 4.15517 5.49706 5.85697 4.15517 4.34141 5.85697 6.1416 4.34141 3.88471 7.05429 7.3592 5.02022 5.31783 7.3592 7.6693 5.31783 5.6166 8.84856 10.8971 6.71758 6.18054 0 -0.016274 0 -0.0279186 -0.016274 -0.130982 -0.0279186 -0.0662869 -0.130982 -0.147481 -0.0662869 -0.103977 -0.147481 -0.13134 -0.103977 -0.229972 -0.13134 -0.362851 -0.229972 -0.266284 -0.362851 -0.871249 -0.266284 -0.322969 -0.871249 -0.442224 -0.322969 -0.71935 -0.442224 -0.330684 -0.71935 -0.944163 1.1256 1.45658 0.408923 0.743636 1.45658 1.78147 0.743636 1.00669 1.78147 2.10475 1.00669 1.28181 2.10475 2.43135 1.28181 1.56476 2.43135 2.80248 1.56476 1.84032 4.24642 4.4687 2.43142 1.44046 4.4687 4.06056 1.44046 2.27323 4.06056 3.98759 2.27323 2.60572 3.98759 4.14332 2.60572 2.80913 4.14332 4.15517 2.80913 3.02114 4.15517 4.34141 3.02114 3.34023 4.34141 3.88471 3.34023 4.18896 3.88471 4.58455 4.18896 2.01272 5.31783 5.6166 3.32468 3.5876 5.6166 5.89716 3.5876 3.82504 5.89716 6.2105 3.82504 4.08484 0 -0.0279186 0 -0.0118932 -0.0279186 -0.0662869 -0.0118932 -0.0336499 -0.0662869 -0.103977 -0.0336499 -0.0726982 -0.103977 -0.229972 -0.0726982 -0.110514 -0.229972 -0.266284 -0.110514 -0.164496 -0.266284 -0.322969 -0.164496 -0.36915 -0.322969 -0.71935 -0.36915 -0.532551 -0.71935 -0.944163 -0.532551 -1.14191 -0.944163 0.605732 -1.14191 -3.08058 0.605732 -0.208511 -3.08058 -0.333103 -0.208511 0.094022 -0.333103 -0.860417 1.00669 1.28181 0.304359 0.549511 1.28181 1.56476 0.549511 0.741088 1.56476 1.84032 0.741088 0.8958 1.84032 2.07842 0.8958 1.01306 2.07842 2.28713 1.01306 1.07035 2.28713 2.44793 1.07035 1.05206 2.44793 2.4894 1.05206 1.04114 2.43142 1.44046 1.23836 1.30198 1.44046 2.27323 1.30198 1.19469 2.27323 2.60572 1.19469 1.28159 2.60572 2.80913 1.28159 1.42352 2.80913 3.02114 1.42352 1.54739 3.02114 3.34023 1.54739 1.58816 3.34023 4.18896 1.58816 1.52596 4.18896 2.01272 1.52596 1.75394 2.01272 2.71577 1.75394 1.34869 2.71577 2.95594 1.34869 0.925224 3.82504 4.08484 1.77179 1.97621 4.08484 4.3444 1.97621 2.18826 4.3444 4.61618 2.18826 2.40669 0 -0.0118932 0 -2.78383e-12 -0.0118932 -0.0336499 -2.78383e-12 -8.78711e-12 -0.0336499 -0.0726982 -8.78711e-12 -1.42603e-11 -0.0726982 -0.110514 -1.42603e-11 -1.9887e-11 -0.110514 -0.164496 -1.9887e-11 -2.10365e-11 -0.164496 -0.36915 -2.10365e-11 -2.57632e-11 -0.36915 -0.532551 -2.57632e-11 -3.29108e-11 -0.532551 -1.14191 -3.29108e-11 -3.60966e-11 -1.14191 -3.08058 -3.60966e-11 -2.35188e-11 -3.08058 -0.333103 -2.35188e-11 -2.42684e-11 -0.333103 -0.860417 -2.42684e-11 -1.0588e-12 -0.860417 -0.219539 -1.0588e-12 1.52603e-12 -0.219539 -0.0152294 1.52603e-12 2.18471e-12 0.549511 0.741088 1.18093e-12 9.46149e-13 0.741088 0.8958 9.46149e-13 8.53955e-13 0.8958 1.01306 8.53955e-13 8.19682e-13 1.01306 1.07035 8.19682e-13 7.9544e-13 1.07035 1.05206 7.9544e-13 7.47816e-13 1.0887 1.23836 1.34673e-12 -2.87646e-11 1.23836 1.30198 -2.87646e-11 1.08011e-10 1.30198 1.19469 1.08011e-10 1.64099e-10 1.19469 1.28159 1.64099e-10 1.96423e-10 1.28159 1.42352 1.96423e-10 2.57325e-10 1.42352 1.54739 2.57325e-10 4.09728e-10 1.54739 1.58816 4.09728e-10 6.49787e-10 1.58816 1.52596 6.49787e-10 2.43175e-10 1.52596 1.75394 2.43175e-10 -2.9576e-10 1.75394 1.34869 -2.9576e-10 -2.14593e-10 1.34869 0.925224 -2.14593e-10 -1.94623e-10 0.925224 1.29052 -1.94623e-10 5.18881e-12 1.29052 1.56227 5.18881e-12 1.14606e-11 1.97621 2.18826 3.38554e-12 2.465e-12 2.18826 2.40669 2.465e-12 2.19121e-12 2.40669 2.41661 2.19121e-12 2.13185e-12 0 -2.78383e-12 0 0.0118932 -2.78383e-12 -8.78711e-12 0.0118932 0.0336499 -8.78711e-12 -1.42603e-11 0.0336499 0.0726982 -1.42603e-11 -1.9887e-11 0.0726982 0.110514 -1.9887e-11 -2.10365e-11 0.110514 0.164496 -2.10365e-11 -2.57632e-11 0.164496 0.36915 -2.57632e-11 -3.29108e-11 0.36915 0.532551 -3.29108e-11 -3.60966e-11 0.532551 1.14191 -3.60966e-11 -2.35188e-11 1.14191 3.08058 -2.35188e-11 -2.42684e-11 3.08058 0.333103 -2.42684e-11 -1.0588e-12 0.333103 0.860417 -1.0588e-12 1.52603e-12 0.860417 0.219539 1.52603e-12 2.18471e-12 0.219539 0.0152294 1.18093e-12 9.46149e-13 -0.549511 -0.741088 9.46149e-13 8.53955e-13 -0.741088 -0.8958 8.53955e-13 8.19682e-13 -0.8958 -1.01306 8.19682e-13 7.9544e-13 -1.01306 -1.07035 7.9544e-13 7.47816e-13 -1.07035 -1.05206 1.34673e-12 -2.87646e-11 -1.0887 -1.23836 -2.87646e-11 1.08011e-10 -1.23836 -1.30198 1.08011e-10 1.64099e-10 -1.30198 -1.19469 1.64099e-10 1.96423e-10 -1.19469 -1.28159 1.96423e-10 2.57325e-10 -1.28159 -1.42352 2.57325e-10 4.09728e-10 -1.42352 -1.54739 4.09728e-10 6.49787e-10 -1.54739 -1.58816 6.49787e-10 2.43175e-10 -1.58816 -1.52596 2.43175e-10 -2.9576e-10 -1.52596 -1.75394 -2.9576e-10 -2.14593e-10 -1.75394 -1.34869 -2.14593e-10 -1.94623e-10 -1.34869 -0.925224 -1.94623e-10 5.18881e-12 -0.925224 -1.29052 5.18881e-12 1.14606e-11 -1.29052 -1.56227 3.38554e-12 2.465e-12 -1.97621 -2.18826 2.465e-12 2.19121e-12 -2.18826 -2.40669 2.19121e-12 2.13185e-12 -2.40669 -2.41661 0 0.0118932 0 0.0279186 0.0118932 0.0336499 0.0279186 0.0662869 0.0336499 0.0726982 0.0662869 0.103977 0.0726982 0.110514 0.103977 0.229972 0.110514 0.164496 0.229972 0.266284 0.164496 0.36915 0.266284 0.322969 0.36915 0.532551 0.322969 0.71935 0.532551 1.14191 0.71935 0.944163 1.14191 3.08058 0.944163 -0.605732 3.08058 0.333103 -0.605732 0.208511 0.333103 0.860417 0.208511 -0.094022 -0.304359 -0.549511 -1.00669 -1.28181 -0.549511 -0.741088 -1.28181 -1.56476 -0.741088 -0.8958 -1.56476 -1.84032 -0.8958 -1.01306 -1.84032 -2.07842 -1.01306 -1.07035 -2.07842 -2.28713 -1.07035 -1.05206 -2.28713 -2.44793 -1.05206 -1.04114 -2.44793 -2.4894 -1.23836 -1.30198 -2.43142 -1.44046 -1.30198 -1.19469 -1.44046 -2.27323 -1.19469 -1.28159 -2.27323 -2.60572 -1.28159 -1.42352 -2.60572 -2.80913 -1.42352 -1.54739 -2.80913 -3.02114 -1.54739 -1.58816 -3.02114 -3.34023 -1.58816 -1.52596 -3.34023 -4.18896 -1.52596 -1.75394 -4.18896 -2.01272 -1.75394 -1.34869 -2.01272 -2.71577 -1.34869 -0.925224 -2.71577 -2.95594 -1.77179 -1.97621 -3.82504 -4.08484 -1.97621 -2.18826 -4.08484 -4.3444 -2.18826 -2.40669 -4.3444 -4.61618 0 0.0279186 0 0.016274 0.0279186 0.0662869 0.016274 0.130982 0.0662869 0.103977 0.130982 0.147481 0.103977 0.229972 0.147481 0.13134 0.229972 0.266284 0.13134 0.362851 0.266284 0.322969 0.362851 0.871249 0.322969 0.71935 0.871249 0.442224 0.71935 0.944163 0.442224 0.330684 -0.408923 -0.743636 -1.1256 -1.45658 -0.743636 -1.00669 -1.45658 -1.78147 -1.00669 -1.28181 -1.78147 -2.10475 -1.28181 -1.56476 -2.10475 -2.43135 -1.56476 -1.84032 -2.43135 -2.80248 -2.43142 -1.44046 -4.24642 -4.4687 -1.44046 -2.27323 -4.4687 -4.06056 -2.27323 -2.60572 -4.06056 -3.98759 -2.60572 -2.80913 -3.98759 -4.14332 -2.80913 -3.02114 -4.14332 -4.15517 -3.02114 -3.34023 -4.15517 -4.34141 -3.34023 -4.18896 -4.34141 -3.88471 -4.18896 -2.01272 -3.88471 -4.58455 -3.32468 -3.5876 -5.31783 -5.6166 -3.5876 -3.82504 -5.6166 -5.89716 -3.82504 -4.08484 -5.89716 -6.2105 0 0.016274 0 0.0610255 0.016274 0.130982 0.0610255 0.067743 0.130982 0.147481 0.067743 0.198487 0.147481 0.13134 0.198487 0.694878 0.13134 0.362851 0.694878 0.335847 0.362851 0.871249 0.335847 0.123048 -0.420038 -0.807649 -1.15516 -1.50417 -0.807649 -1.1256 -1.50417 -1.85578 -1.1256 -1.45658 -1.85578 -2.1942 -1.45658 -1.78147 -2.1942 -2.58088 -3.53475 -4.14073 -5.14421 -5.88771 -4.18436 -4.20191 -5.79245 -5.82373 -4.4687 -4.06056 -5.7515 -5.48326 -4.06056 -3.98759 -5.48326 -5.64627 -3.98759 -4.14332 -5.64627 -5.53349 -4.14332 -4.15517 -5.53349 -5.49706 -4.15517 -4.34141 -5.49706 -5.85697 -4.34141 -3.88471 -5.85697 -6.1416 -5.02022 -5.31783 -7.05429 -7.3592 -5.31783 -5.6166 -7.3592 -7.6693 -6.71758 -6.18054 -8.84856 -10.8971 0 0.0610255 0 0.221457 0.0610255 0.067743 0.221457 0.765238 0.067743 0.198487 0.765238 0.175792 0.198487 0.694878 0.175792 -0.0279462 -0.49502 -0.834108 -1.26603 -1.58902 -0.834108 -1.15516 -1.58902 -1.91649 -1.15516 -1.50417 -1.91649 -2.22356 -1.50417 -1.85578 -2.22356 -2.56126 -3.67904 -4.23835 -4.89074 -3.78484 -4.23835 -5.14421 -3.78484 -3.72134 -5.14421 -5.88771 -3.72134 -7.28114 -5.7515 -5.48326 -7.54222 -7.43252 -5.48326 -5.64627 -7.43252 -6.46785 -5.64627 -5.53349 -6.46785 -7.43748 -5.53349 -5.49706 -7.43748 -7.53556 -6.46293 -6.77857 -8.46374 -8.76674 -6.77857 -7.05429 -8.76674 -9.04353 -7.05429 -7.3592 -9.04353 -9.33507 -8.32618 -8.55713 -10.4195 -9.86362 -8.55713 -8.84856 -9.86362 -10.585 -8.84856 -10.8971 -10.585 -10.3762 0 0.221457 0 0.213029 0.221457 0.765238 0.213029 -0.0537808 -0.637429 -0.961008 -1.40419 -1.71905 -0.961008 -1.26603 -1.71905 -2.03382 -1.26603 -1.58902 -2.03382 -2.34594 -1.58902 -1.91649 -2.34594 -2.65698 -3.34498 -3.87535 -4.44338 -3.61304 -3.87535 -2.67133 -3.61304 -7.97029 -2.67133 -4.89074 -7.97029 -6.50953 -4.89074 -3.78484 -6.50953 -6.97092 -3.78484 -3.72134 -6.97092 -8.39483 -3.72134 -7.28114 -8.39483 -9.99257 -7.28114 -7.43724 -9.99257 -9.17526 -7.49874 -7.50565 -9.04995 -9.07479 -7.43252 -6.46785 -8.81366 -8.89691 -7.87039 -8.18045 -9.8648 -10.1657 -8.18045 -8.46374 -10.1657 -10.4453 -8.46374 -8.76674 -10.4453 -10.7737 -9.71755 -9.95465 -11.691 -11.2949 -9.95465 -10.4195 -11.2949 -11.5438 -10.4195 -9.86362 -11.5438 -11.9523 -9.86362 -10.585 -11.9523 -12.0407 -10.585 -10.3762 -12.0407 -11.9801 -0.728941 -1.08777 -1.43653 -1.84747 -1.08777 -1.40419 -1.84747 -2.22308 -1.40419 -1.71905 -2.22308 -2.54124 -1.71905 -2.03382 -2.54124 -2.78067 -2.03382 -2.34594 -2.78067 -3.09038 -3.26222 -3.50711 -3.3909 -3.66135 -3.50711 -4.44338 -3.66135 -4.44283 -4.44338 -3.61304 -4.44283 -6.2338 -3.61304 -7.97029 -6.2338 -6.69337 -7.97029 -6.50953 -6.69337 -7.8381 -6.50953 -6.97092 -7.8381 -8.44411 -6.97092 -8.39483 -8.44411 -9.09989 -8.39483 -9.99257 -9.09989 -9.88724 -9.99257 -9.17526 -9.88724 -11.348 -9.07479 -9.01651 -10.7163 -10.7263 -9.56669 -9.8648 -11.6018 -11.9025 -9.8648 -10.1657 -11.9025 -12.1936 -11.1114 -11.3626 -13.4035 -12.9941 -11.3626 -11.691 -12.9941 -13.2082 -11.691 -11.2949 -13.2082 -13.4055 -11.2949 -11.5438 -13.4055 -13.6051 -11.5438 -11.9523 -13.6051 -13.7078 -11.9523 -12.0407 -13.7078 -13.794 -12.0407 -11.9801 -13.794 -13.7729 -0.599007 -1.0235 -1.09375 -1.65826 -1.0235 -1.43653 -1.65826 -2.19589 -1.43653 -1.84747 -2.19589 -2.69231 -1.84747 -2.22308 -2.69231 -3.14231 -2.22308 -2.54124 -3.14231 -3.53427 -2.54124 -2.78067 -3.53427 -3.86345 -10.7163 -10.7263 -12.2695 -12.5408 -10.7263 -10.7751 -12.5408 -12.8255 -11.0262 -11.3204 -13.0947 -13.3627 -11.3204 -11.6018 -13.3627 -13.607 -11.6018 -11.9025 -13.607 -13.9149 -12.6473 -13.4035 -15.1765 -12.8191 -13.4035 -12.9941 -12.8191 -14.2754 -12.9941 -13.2082 -14.2754 -14.901 -13.2082 -13.4055 -14.901 -15.2726 -13.4055 -13.6051 -15.2726 -15.5364 -13.6051 -13.7078 -15.5364 -15.666 -13.7078 -13.794 -15.666 -15.7052 -13.794 -13.7729 -15.7052 -15.7111 0 -0.528921 0 -0.795926 -0.528921 -1.09375 -0.795926 -1.63711 -1.09375 -1.65826 -1.63711 -2.38162 -1.65826 -2.19589 -2.38162 -3.04206 -2.19589 -2.69231 -3.04206 -3.63646 -2.69231 -3.14231 -3.63646 -4.17875 -3.14231 -3.53427 -4.17875 -4.68564 -3.53427 -3.86345 -4.68564 -5.18781 -3.86345 -4.24356 -5.18781 -5.69046 -11.9469 -12.2695 -13.319 -13.8499 -12.2695 -12.5408 -13.8499 -14.3275 -12.5408 -12.8255 -14.3275 -14.7254 -12.8255 -13.0947 -14.7254 -15.0482 -13.0947 -13.3627 -15.0482 -15.3712 -14.268 -14.4872 -16.2721 -15.8398 -14.4872 -15.1765 -15.8398 -15.9571 -15.1765 -12.8191 -15.9571 -16.6409 -12.8191 -14.2754 -16.6409 -16.85 -14.2754 -14.901 -16.85 -17.1466 -14.901 -15.2726 -17.1466 -17.4319 -15.2726 -15.5364 -17.4319 -17.6219 -15.5364 -15.666 -17.6219 -17.7259 -15.666 -15.7052 -17.7259 -17.7633 -15.7052 -15.7111 -17.7633 -17.7701 0 -0.795926 0 -1.3771 -0.795926 -1.63711 -1.3771 -2.42382 -1.63711 -2.38162 -2.42382 -3.29472 -2.38162 -3.04206 -3.29472 -4.04019 -3.04206 -3.63646 -4.04019 -4.69448 -3.63646 -4.17875 -4.69448 -5.29567 -4.17875 -4.68564 -5.29567 -5.88594 -4.68564 -5.18781 -5.88594 -6.49497 -5.18781 -5.69046 -6.49497 -7.13818 -5.69046 -6.20603 -7.13818 -7.80423 -6.20603 -6.73336 -7.80423 -8.46686 -6.73336 -7.2896 -8.46686 -9.08879 -7.2896 -7.87366 -9.08879 -9.65802 -7.87366 -8.48209 -9.65802 -10.1963 -8.48209 -9.09939 -10.1963 -10.7347 -9.09939 -9.7159 -10.7347 -11.2818 -9.7159 -10.3313 -11.2818 -11.8373 -10.3313 -10.9459 -11.8373 -12.401 -10.9459 -11.56 -12.401 -12.9728 -11.56 -12.1728 -12.9728 -13.5522 -12.1728 -12.7666 -13.5522 -14.1563 -12.7666 -13.319 -14.1563 -14.8305 -13.319 -13.8499 -14.8305 -15.5629 -13.8499 -14.3275 -15.5629 -16.2584 -14.3275 -14.7254 -16.2584 -16.7801 -14.7254 -15.0482 -16.7801 -17.0619 -15.6921 -15.8524 -17.9866 -17.7371 -15.8524 -16.2721 -17.7371 -17.5482 -16.2721 -15.8398 -17.5482 -18.1952 -15.8398 -15.9571 -18.1952 -18.7302 -15.9571 -16.6409 -18.7302 -19.1026 -16.6409 -16.85 -19.1026 -19.58 -16.85 -17.1466 -19.58 -19.7137 -17.1466 -17.4319 -19.7137 -19.7934 -17.4319 -17.6219 -19.7934 -19.8714 -17.6219 -17.7259 -19.8714 -19.9069 -17.7259 -17.7633 -19.9069 -19.9039 -17.7633 -17.7701 -19.9039 -19.8976 17.0619 17.1292 16.055 16.1494 17.1292 17.1437 16.1494 16.2376 16.055 16.1494 15.0482 15.2097 16.1494 16.2376 15.2097 15.3712 17.1437 16.575 16.2376 16.6016 16.575 17.9866 16.6016 16.8393 16.2376 16.6016 15.3712 15.5871 16.6016 16.8393 15.5871 15.6921 5.69046 5.94825 4.96701 5.18204 5.94825 6.20603 5.18204 5.39818 4.96701 5.18204 4.24356 4.41352 5.18204 5.39818 4.41352 4.57914 6.20603 6.46969 5.39818 5.61979 6.46969 6.73336 5.61979 5.85457 5.39818 5.61979 4.57914 4.74818 5.61979 5.85457 4.74818 4.94932 6.73336 7.01148 5.85457 6.10094 7.01148 7.2896 6.10094 6.36865 5.85457 6.10094 4.94932 5.16047 6.10094 6.36865 5.16047 5.36879 7.2896 7.58163 6.36865 6.65851 7.58163 7.87366 6.65851 6.97168 6.36865 6.65851 5.36879 5.66759 6.65851 6.97168 5.66759 6.04312 7.87366 8.17788 6.97168 7.29615 8.17788 8.48209 7.29615 7.62544 6.97168 7.29615 6.04312 6.41561 7.29615 7.62544 6.41561 6.77058 8.48209 8.79074 7.62544 7.95402 8.79074 9.09939 7.95402 8.28133 7.62544 7.95402 6.77058 7.11932 7.95402 8.28133 7.11932 7.46522 9.09939 9.40764 8.28133 8.6075 9.40764 9.7159 8.6075 8.93213 8.28133 8.6075 7.46522 7.80887 8.6075 8.93213 7.80887 8.15028 9.7159 10.0236 8.93213 9.25562 10.0236 10.3313 9.25562 9.57754 8.93213 9.25562 8.15028 8.48917 9.25562 9.57754 8.48917 8.82567 10.3313 10.6386 9.57754 9.8983 10.6386 10.9459 9.8983 10.2175 9.57754 9.8983 8.82567 9.15959 9.8983 10.2175 9.15959 9.49106 10.9459 11.2529 10.2175 10.5356 11.2529 11.56 10.5356 10.852 10.2175 10.5356 9.49106 9.81979 10.5356 10.852 9.81979 10.1458 11.56 11.8664 10.852 11.1673 11.8664 12.1728 11.1673 11.4807 10.852 11.1673 10.1458 10.4687 11.1673 11.4807 10.4687 10.7898 12.1728 12.4697 11.4807 11.792 12.4697 12.7666 11.792 12.0885 11.4807 11.792 10.7898 11.1162 11.792 12.0885 11.1162 11.4784 12.7666 13.0428 12.0885 12.3711 13.0428 13.319 12.3711 12.6329 12.0885 12.3711 11.47