# vtk DataFile Version 3.0
#This file was generated by the deal.II library on 2015/9/1 at 10:19:27
ASCII
DATASET UNSTRUCTURED_GRID

POINTS 6560 double
0 0 0
0.05 0 0
0 0.05 0
0.05 0.05 0
0.05 0 0
0.1 0 0
0.05 0.05 0
0.1 0.05 0
0.1 0 0
0.15 0 0
0.1 0.05 0
0.15 0.05 0
0.15 0 0
0.2 0 0
0.15 0.05 0
0.2 0.05 0
0.2 0 0
0.25 0 0
0.2 0.05 0
0.25 0.05 0
0.25 0 0
0.3 0 0
0.25 0.05 0
0.3 0.05 0
0.3 0 0
0.35 0 0
0.3 0.05 0
0.35 0.05 0
0.35 0 0
0.4 0 0
0.35 0.05 0
0.4 0.05 0
0.4 0 0
0.45 0 0
0.4 0.05 0
0.45 0.05 0
0.45 0 0
0.5 0 0
0.45 0.05 0
0.5 0.05 0
0.5 0 0
0.55 0 0
0.5 0.05 0
0.55 0.05 0
0.55 0 0
0.6 0 0
0.55 0.05 0
0.6 0.05 0
0.6 0 0
0.65 0 0
0.6 0.05 0
0.65 0.05 0
0.65 0 0
0.7 0 0
0.65 0.05 0
0.7 0.05 0
0.7 0 0
0.75 0 0
0.7 0.05 0
0.75 0.05 0
0.75 0 0
0.8 0 0
0.75 0.05 0
0.8 0.05 0
0.8 0 0
0.85 0 0
0.8 0.05 0
0.85 0.05 0
0.85 0 0
0.9 0 0
0.85 0.05 0
0.9 0.05 0
0.9 0 0
0.95 0 0
0.9 0.05 0
0.95 0.05 0
0.95 0 0
1 0 0
0.95 0.05 0
1 0.05 0
1 0 0
1.05 0 0
1 0.05 0
1.05 0.05 0
1.05 0 0
1.1 0 0
1.05 0.05 0
1.1 0.05 0
1.1 0 0
1.15 0 0
1.1 0.05 0
1.15 0.05 0
1.15 0 0
1.2 0 0
1.15 0.05 0
1.2 0.05 0
1.2 0 0
1.25 0 0
1.2 0.05 0
1.25 0.05 0
1.25 0 0
1.3 0 0
1.25 0.05 0
1.3 0.05 0
1.3 0 0
1.35 0 0
1.3 0.05 0
1.35 0.05 0
1.45 0 0
1.5 0 0
1.45 0.05 0
1.5 0.05 0
1.5 0 0
1.55 0 0
1.5 0.05 0
1.55 0.05 0
1.55 0 0
1.6 0 0
1.55 0.05 0
1.6 0.05 0
1.6 0 0
1.65 0 0
1.6 0.05 0
1.65 0.05 0
1.65 0 0
1.7 0 0
1.65 0.05 0
1.7 0.05 0
1.7 0 0
1.75 0 0
1.7 0.05 0
1.75 0.05 0
1.75 0 0
1.8 0 0
1.75 0.05 0
1.8 0.05 0
1.8 0 0
1.85 0 0
1.8 0.05 0
1.85 0.05 0
1.85 0 0
1.9 0 0
1.85 0.05 0
1.9 0.05 0
1.9 0 0
1.95 0 0
1.9 0.05 0
1.95 0.05 0
1.95 0 0
2 0 0
1.95 0.05 0
2 0.05 0
0 0.05 0
0.05 0.05 0
0 0.1 0
0.05 0.1 0
0.05 0.05 0
0.1 0.05 0
0.05 0.1 0
0.1 0.1 0
0.1 0.05 0
0.15 0.05 0
0.1 0.1 0
0.15 0.1 0
0.15 0.05 0
0.2 0.05 0
0.15 0.1 0
0.2 0.1 0
0.2 0.05 0
0.25 0.05 0
0.2 0.1 0
0.25 0.1 0
0.25 0.05 0
0.3 0.05 0
0.25 0.1 0
0.3 0.1 0
0.3 0.05 0
0.35 0.05 0
0.3 0.1 0
0.35 0.1 0
0.35 0.05 0
0.4 0.05 0
0.35 0.1 0
0.4 0.1 0
0.4 0.05 0
0.45 0.05 0
0.4 0.1 0
0.45 0.1 0
1.15 0.05 0
1.2 0.05 0
1.15 0.1 0
1.2 0.1 0
1.2 0.05 0
1.25 0.05 0
1.2 0.1 0
1.25 0.1 0
1.25 0.05 0
1.3 0.05 0
1.25 0.1 0
1.3 0.1 0
1.3 0.05 0
1.35 0.05 0
1.3 0.1 0
1.35 0.1 0
1.35 0.05 0
1.4 0.05 0
1.35 0.1 0
1.4 0.1 0
1.55 0.05 0
1.6 0.05 0
1.55 0.1 0
1.6 0.1 0
1.6 0.05 0
1.65 0.05 0
1.6 0.1 0
1.65 0.1 0
1.65 0.05 0
1.7 0.05 0
1.65 0.1 0
1.7 0.1 0
1.7 0.05 0
1.75 0.05 0
1.7 0.1 0
1.75 0.1 0
1.75 0.05 0
1.8 0.05 0
1.75 0.1 0
1.8 0.1 0
1.8 0.05 0
1.85 0.05 0
1.8 0.1 0
1.85 0.1 0
1.85 0.05 0
1.9 0.05 0
1.85 0.1 0
1.9 0.1 0
1.9 0.05 0
1.95 0.05 0
1.9 0.1 0
1.95 0.1 0
1.95 0.05 0
2 0.05 0
1.95 0.1 0
2 0.1 0
0.1 0.1 0
0.15 0.1 0
0.1 0.15 0
0.15 0.15 0
0.15 0.1 0
0.2 0.1 0
0.15 0.15 0
0.2 0.15 0
0.2 0.1 0
0.25 0.1 0
0.2 0.15 0
0.25 0.15 0
0.25 0.1 0
0.3 0.1 0
0.25 0.15 0
0.3 0.15 0
0.3 0.1 0
0.35 0.1 0
0.3 0.15 0
0.35 0.15 0
0.35 0.1 0
0.4 0.1 0
0.35 0.15 0
0.4 0.15 0
0.4 0.1 0
0.45 0.1 0
0.4 0.15 0
0.45 0.15 0
1.2 0.1 0
1.25 0.1 0
1.2 0.15 0
1.25 0.15 0
1.25 0.1 0
1.3 0.1 0
1.25 0.15 0
1.3 0.15 0
1.35 0.1 0
1.4 0.1 0
1.35 0.15 0
1.4 0.15 0
1.4 0.1 0
1.45 0.1 0
1.4 0.15 0
1.45 0.15 0
1.6 0.1 0
1.65 0.1 0
1.6 0.15 0
1.65 0.15 0
1.65 0.1 0
1.7 0.1 0
1.65 0.15 0
1.7 0.15 0
1.7 0.1 0
1.75 0.1 0
1.7 0.15 0
1.75 0.15 0
1.75 0.1 0
1.8 0.1 0
1.75 0.15 0
1.8 0.15 0
1.8 0.1 0
1.85 0.1 0
1.8 0.15 0
1.85 0.15 0
1.85 0.1 0
1.9 0.1 0
1.85 0.15 0
1.9 0.15 0
1.9 0.1 0
1.95 0.1 0
1.9 0.15 0
1.95 0.15 0
1.95 0.1 0
2 0.1 0
1.95 0.15 0
2 0.15 0
0.2 0.15 0
0.25 0.15 0
0.2 0.2 0
0.25 0.2 0
0.25 0.15 0
0.3 0.15 0
0.25 0.2 0
0.3 0.2 0
0.3 0.15 0
0.35 0.15 0
0.3 0.2 0
0.35 0.2 0
0.35 0.15 0
0.4 0.15 0
0.35 0.2 0
0.4 0.2 0
0.4 0.15 0
0.45 0.15 0
0.4 0.2 0
0.45 0.2 0
0.6 0.15 0
0.65 0.15 0
0.6 0.2 0
0.65 0.2 0
0.65 0.15 0
0.7 0.15 0
0.65 0.2 0
0.7 0.2 0
0.7 0.15 0
0.75 0.15 0
0.7 0.2 0
0.75 0.2 0
0.75 0.15 0
0.8 0.15 0
0.75 0.2 0
0.8 0.2 0
0.8 0.15 0
0.85 0.15 0
0.8 0.2 0
0.85 0.2 0
0.85 0.15 0
0.9 0.15 0
0.85 0.2 0
0.9 0.2 0
0.9 0.15 0
0.95 0.15 0
0.9 0.2 0
0.95 0.2 0
0.95 0.15 0
1 0.15 0
0.95 0.2 0
1 0.2 0
1 0.15 0
1.05 0.15 0
1 0.2 0
1.05 0.2 0
1.05 0.15 0
1.1 0.15 0
1.05 0.2 0
1.1 0.2 0
1.2 0.15 0
1.25 0.15 0
1.2 0.2 0
1.25 0.2 0
1.45 0.15 0
1.5 0.15 0
1.45 0.2 0
1.5 0.2 0
1.5 0.15 0
1.55 0.15 0
1.5 0.2 0
1.55 0.2 0
1.7 0.15 0
1.75 0.15 0
1.7 0.2 0
1.75 0.2 0
1.75 0.15 0
1.8 0.15 0
1.75 0.2 0
1.8 0.2 0
1.8 0.15 0
1.85 0.15 0
1.8 0.2 0
1.85 0.2 0
1.85 0.15 0
1.9 0.15 0
1.85 0.2 0
1.9 0.2 0
1.9 0.15 0
1.95 0.15 0
1.9 0.2 0
1.95 0.2 0
1.95 0.15 0
2 0.15 0
1.95 0.2 0
2 0.2 0
0 0.2 0
0.05 0.2 0
0 0.25 0
0.05 0.25 0
0.05 0.2 0
0.1 0.2 0
0.05 0.25 0
0.1 0.25 0
0.3 0.2 0
0.35 0.2 0
0.3 0.25 0
0.35 0.25 0
0.35 0.2 0
0.4 0.2 0
0.35 0.25 0
0.4 0.25 0
0.4 0.2 0
0.45 0.2 0
0.4 0.25 0
0.45 0.25 0
0.45 0.2 0
0.5 0.2 0
0.45 0.25 0
0.5 0.25 0
0.7 0.2 0
0.75 0.2 0
0.7 0.25 0
0.75 0.25 0
0.75 0.2 0
0.8 0.2 0
0.75 0.25 0
0.8 0.25 0
0.8 0.2 0
0.85 0.2 0
0.8 0.25 0
0.85 0.25 0
0.85 0.2 0
0.9 0.2 0
0.85 0.25 0
0.9 0.25 0
0.9 0.2 0
0.95 0.2 0
0.9 0.25 0
0.95 0.25 0
0.95 0.2 0
1 0.2 0
0.95 0.25 0
1 0.25 0
1 0.2 0
1.05 0.2 0
1 0.25 0
1.05 0.25 0
1.15 0.2 0
1.2 0.2 0
1.15 0.25 0
1.2 0.25 0
1.3 0.2 0
1.35 0.2 0
1.3 0.25 0
1.35 0.25 0
1.5 0.2 0
1.55 0.2 0
1.5 0.25 0
1.55 0.25 0
1.55 0.2 0
1.6 0.2 0
1.55 0.25 0
1.6 0.25 0
1.6 0.2 0
1.65 0.2 0
1.6 0.25 0
1.65 0.25 0
1.75 0.2 0
1.8 0.2 0
1.75 0.25 0
1.8 0.25 0
1.8 0.2 0
1.85 0.2 0
1.8 0.25 0
1.85 0.25 0
1.85 0.2 0
1.9 0.2 0
1.85 0.25 0
1.9 0.25 0
1.9 0.2 0
1.95 0.2 0
1.9 0.25 0
1.95 0.25 0
1.95 0.2 0
2 0.2 0
1.95 0.25 0
2 0.25 0
0 0.25 0
0.05 0.25 0
0 0.3 0
0.05 0.3 0
0.05 0.25 0
0.1 0.25 0
0.05 0.3 0
0.1 0.3 0
0.1 0.25 0
0.15 0.25 0
0.1 0.3 0
0.15 0.3 0
0.15 0.25 0
0.2 0.25 0
0.15 0.3 0
0.2 0.3 0
0.4 0.25 0
0.45 0.25 0
0.4 0.3 0
0.45 0.3 0
0.45 0.25 0
0.5 0.25 0
0.45 0.3 0
0.5 0.3 0
0.5 0.25 0
0.55 0.25 0
0.5 0.3 0
0.55 0.3 0
0.55 0.25 0
0.6 0.25 0
0.55 0.3 0
0.6 0.3 0
0.85 0.25 0
0.9 0.25 0
0.85 0.3 0
0.9 0.3 0
0.9 0.25 0
0.95 0.25 0
0.9 0.3 0
0.95 0.3 0
0.95 0.25 0
1 0.25 0
0.95 0.3 0
1 0.3 0
1 0.25 0
1.05 0.25 0
1 0.3 0
1.05 0.3 0
1.25 0.25 0
1.3 0.25 0
1.25 0.3 0
1.3 0.3 0
1.3 0.25 0
1.35 0.25 0
1.3 0.3 0
1.35 0.3 0
1.35 0.25 0
1.4 0.25 0
1.35 0.3 0
1.4 0.3 0
1.4 0.25 0
1.45 0.25 0
1.4 0.3 0
1.45 0.3 0
1.6 0.25 0
1.65 0.25 0
1.6 0.3 0
1.65 0.3 0
1.65 0.25 0
1.7 0.25 0
1.65 0.3 0
1.7 0.3 0
1.85 0.25 0
1.9 0.25 0
1.85 0.3 0
1.9 0.3 0
1.9 0.25 0
1.95 0.25 0
1.9 0.3 0
1.95 0.3 0
1.95 0.25 0
2 0.25 0
1.95 0.3 0
2 0.3 0
0 0.3 0
0.05 0.3 0
0 0.35 0
0.05 0.35 0
0.05 0.3 0
0.1 0.3 0
0.05 0.35 0
0.1 0.35 0
0.1 0.3 0
0.15 0.3 0
0.1 0.35 0
0.15 0.35 0
0.15 0.3 0
0.2 0.3 0
0.15 0.35 0
0.2 0.35 0
0.2 0.3 0
0.25 0.3 0
0.2 0.35 0
0.25 0.35 0
0.25 0.3 0
0.3 0.3 0
0.25 0.35 0
0.3 0.35 0
0.5 0.3 0
0.55 0.3 0
0.5 0.35 0
0.55 0.35 0
0.55 0.3 0
0.6 0.3 0
0.55 0.35 0
0.6 0.35 0
0.6 0.3 0
0.65 0.3 0
0.6 0.35 0
0.65 0.35 0
0.65 0.3 0
0.7 0.3 0
0.65 0.35 0
0.7 0.35 0
0.7 0.3 0
0.75 0.3 0
0.7 0.35 0
0.75 0.35 0
0.95 0.3 0
1 0.3 0
0.95 0.35 0
1 0.35 0
1.1 0.3 0
1.15 0.3 0
1.1 0.35 0
1.15 0.35 0
1.2 0.3 0
1.25 0.3 0
1.2 0.35 0
1.25 0.35 0
1.25 0.3 0
1.3 0.3 0
1.25 0.35 0
1.3 0.35 0
1.3 0.3 0
1.35 0.3 0
1.3 0.35 0
1.35 0.35 0
1.35 0.3 0
1.4 0.3 0
1.35 0.35 0
1.4 0.35 0
1.4 0.3 0
1.45 0.3 0
1.4 0.35 0
1.45 0.35 0
1.45 0.3 0
1.5 0.3 0
1.45 0.35 0
1.5 0.35 0
1.65 0.3 0
1.7 0.3 0
1.65 0.35 0
1.7 0.35 0
1.7 0.3 0
1.75 0.3 0
1.7 0.35 0
1.75 0.35 0
1.75 0.3 0
1.8 0.3 0
1.75 0.35 0
1.8 0.35 0
1.95 0.3 0
2 0.3 0
1.95 0.35 0
2 0.35 0
0 0.35 0
0.05 0.35 0
0 0.4 0
0.05 0.4 0
0.05 0.35 0
0.1 0.35 0
0.05 0.4 0
0.1 0.4 0
0.1 0.35 0
0.15 0.35 0
0.1 0.4 0
0.15 0.4 0
0.15 0.35 0
0.2 0.35 0
0.15 0.4 0
0.2 0.4 0
0.2 0.35 0
0.25 0.35 0
0.2 0.4 0
0.25 0.4 0
0.25 0.35 0
0.3 0.35 0
0.25 0.4 0
0.3 0.4 0
0.3 0.35 0
0.35 0.35 0
0.3 0.4 0
0.35 0.4 0
0.35 0.35 0
0.4 0.35 0
0.35 0.4 0
0.4 0.4 0
0.65 0.35 0
0.7 0.35 0
0.65 0.4 0
0.7 0.4 0
0.7 0.35 0
0.75 0.35 0
0.7 0.4 0
0.75 0.4 0
0.75 0.35 0
0.8 0.35 0
0.75 0.4 0
0.8 0.4 0
0.8 0.35 0
0.85 0.35 0
0.8 0.4 0
0.85 0.4 0
1.05 0.35 0
1.1 0.35 0
1.05 0.4 0
1.1 0.4 0
1.2 0.35 0
1.25 0.35 0
1.2 0.4 0
1.25 0.4 0
1.25 0.35 0
1.3 0.35 0
1.25 0.4 0
1.3 0.4 0
1.3 0.35 0
1.35 0.35 0
1.3 0.4 0
1.35 0.4 0
1.35 0.35 0
1.4 0.35 0
1.35 0.4 0
1.4 0.4 0
1.4 0.35 0
1.45 0.35 0
1.4 0.4 0
1.45 0.4 0
1.45 0.35 0
1.5 0.35 0
1.45 0.4 0
1.5 0.4 0
1.5 0.35 0
1.55 0.35 0
1.5 0.4 0
1.55 0.4 0
1.55 0.35 0
1.6 0.35 0
1.55 0.4 0
1.6 0.4 0
1.75 0.35 0
1.8 0.35 0
1.75 0.4 0
1.8 0.4 0
1.8 0.35 0
1.85 0.35 0
1.8 0.4 0
1.85 0.4 0
0 0.4 0
0.05 0.4 0
0 0.45 0
0.05 0.45 0
0.05 0.4 0
0.1 0.4 0
0.05 0.45 0
0.1 0.45 0
0.1 0.4 0
0.15 0.4 0
0.1 0.45 0
0.15 0.45 0
0.15 0.4 0
0.2 0.4 0
0.15 0.45 0
0.2 0.45 0
0.2 0.4 0
0.25 0.4 0
0.2 0.45 0
0.25 0.45 0
0.25 0.4 0
0.3 0.4 0
0.25 0.45 0
0.3 0.45 0
0.3 0.4 0
0.35 0.4 0
0.3 0.45 0
0.35 0.45 0
0.35 0.4 0
0.4 0.4 0
0.35 0.45 0
0.4 0.45 0
0.4 0.4 0
0.45 0.4 0
0.4 0.45 0
0.45 0.45 0
0.45 0.4 0
0.5 0.4 0
0.45 0.45 0
0.5 0.45 0
0.5 0.4 0
0.55 0.4 0
0.5 0.45 0
0.55 0.45 0
0.7 0.4 0
0.75 0.4 0
0.7 0.45 0
0.75 0.45 0
0.75 0.4 0
0.8 0.4 0
0.75 0.45 0
0.8 0.45 0
0.8 0.4 0
0.85 0.4 0
0.8 0.45 0
0.85 0.45 0
0.85 0.4 0
0.9 0.4 0
0.85 0.45 0
0.9 0.45 0
0.9 0.4 0
0.95 0.4 0
0.9 0.45 0
0.95 0.45 0
0.95 0.4 0
1 0.4 0
0.95 0.45 0
1 0.45 0
1 0.4 0
1.05 0.4 0
1 0.45 0
1.05 0.45 0
1.15 0.4 0
1.2 0.4 0
1.15 0.45 0
1.2 0.45 0
1.2 0.4 0
1.25 0.4 0
1.2 0.45 0
1.25 0.45 0
1.25 0.4 0
1.3 0.4 0
1.25 0.45 0
1.3 0.45 0
1.3 0.4 0
1.35 0.4 0
1.3 0.45 0
1.35 0.45 0
1.35 0.4 0
1.4 0.4 0
1.35 0.45 0
1.4 0.45 0
1.4 0.4 0
1.45 0.4 0
1.4 0.45 0
1.45 0.45 0
1.45 0.4 0
1.5 0.4 0
1.45 0.45 0
1.5 0.45 0
1.5 0.4 0
1.55 0.4 0
1.5 0.45 0
1.55 0.45 0
1.55 0.4 0
1.6 0.4 0
1.55 0.45 0
1.6 0.45 0
1.6 0.4 0
1.65 0.4 0
1.6 0.45 0
1.65 0.45 0
1.65 0.4 0
1.7 0.4 0
1.65 0.45 0
1.7 0.45 0
1.8 0.4 0
1.85 0.4 0
1.8 0.45 0
1.85 0.45 0
1.85 0.4 0
1.9 0.4 0
1.85 0.45 0
1.9 0.45 0
1.9 0.4 0
1.95 0.4 0
1.9 0.45 0
1.95 0.45 0
0 0.45 0
0.05 0.45 0
0 0.5 0
0.05 0.5 0
0.05 0.45 0
0.1 0.45 0
0.05 0.5 0
0.1 0.5 0
0.1 0.45 0
0.15 0.45 0
0.1 0.5 0
0.15 0.5 0
0.15 0.45 0
0.2 0.45 0
[...]
POINT_DATA 6560
SCALARS x_displacement double 1
LOOKUP_TABLE default
0 1.957 0 0.967164 1.957 3.38184 0.967164 1.98489 3.38184 4.47023 1.98489 2.87135 4.47023 5.33353 2.87135 3.64227 5.33353 6.04672 3.64227 4.31683 6.04672 6.66966 4.31683 4.91197 6.66966 7.2572 4.91197 5.45033 7.2572 7.84474 5.45033 5.9756 7.84474 8.41639 5.9756 6.52147 8.41639 8.93607 6.52147 7.06426 8.93607 9.39309 7.06426 7.61435 9.39309 9.84495 7.61435 8.15181 9.84495 10.3496 8.15181 8.68538 10.3496 10.9092 8.68538 9.24225 10.9092 11.4927 9.24225 9.83033 11.4927 12.1056 9.83033 10.4314 12.1056 12.766 10.4314 11.0333 12.766 13.4607 11.0333 11.656 13.4607 14.1717 11.656 12.3025 14.1717 14.9034 12.3025 12.9231 14.9034 15.6472 12.9231 13.4891 15.6472 16.3228 13.4891 14.0301 16.3228 16.8423 14.0301 14.526 16.8423 17.2191 14.526 14.9656 17.2191 17.5045 14.9656 15.3522 17.5045 17.6753 15.3522 15.6617 17.6753 17.717 15.6617 15.932 18.4681 16.9462 16.9484 17.7745 16.9462 19.6138 17.7745 18.1651 19.6138 21.211 18.1651 18.0001 21.211 22.0716 18.0001 19.0437 22.0716 22.6946 19.0437 19.6817 22.6946 23.1353 19.6817 20.158 23.1353 23.4391 20.158 20.5543 23.4391 23.6054 20.5543 20.7744 23.6054 23.637 20.7744 20.877 23.637 23.6121 20.877 20.917 23.6121 23.5991 20.917 20.9269 0 0.967164 0 0.334058 0.967164 1.98489 0.334058 0.910837 1.98489 2.87135 0.910837 1.55394 2.87135 3.64227 1.55394 2.18581 3.64227 4.31683 2.18581 2.77153 4.31683 4.91197 2.77153 3.28415 4.91197 5.45033 3.28415 3.72226 5.45033 5.9756 3.72226 4.1089 5.9756 6.52147 4.1089 4.54419 14.526 14.9656 12.3883 12.9449 14.9656 15.3522 12.9449 13.3578 15.3522 15.6617 13.3578 13.7634 15.6617 15.932 13.7634 14.2015 15.932 16.3611 14.2015 14.6874 18.1651 18.0001 16.4435 16.9873 18.0001 19.0437 16.9873 16.4119 19.0437 19.6817 16.4119 16.9711 19.6817 20.158 16.9711 17.5879 20.158 20.5543 17.5879 17.9696 20.5543 20.7744 17.9696 18.1597 20.7744 20.877 18.1597 18.281 20.877 20.917 18.281 18.325 20.917 20.9269 18.325 18.3372 0.910837 1.55394 -0.187477 0.333521 1.55394 2.18581 0.333521 0.89213 2.18581 2.77153 0.89213 1.35522 2.77153 3.28415 1.35522 1.80276 3.28415 3.72226 1.80276 2.18651 3.72226 4.1089 2.18651 2.43843 4.1089 4.54419 2.43843 2.56213 12.9449 13.3578 11.1929 11.3204 13.3578 13.7634 11.3204 11.7198 14.2015 14.6874 12.4116 12.9164 14.6874 15.2458 12.9164 13.3918 16.9873 16.4119 14.7 15.1783 16.4119 16.9711 15.1783 15.6903 16.9711 17.5879 15.6903 15.0267 17.5879 17.9696 15.0267 15.504 17.9696 18.1597 15.504 15.7544 18.1597 18.281 15.7544 15.8578 18.281 18.325 15.8578 15.9261 18.325 18.3372 15.9261 15.9067 0.89213 1.35522 -0.44981 -0.04034 1.35522 1.80276 -0.04034 0.518082 1.80276 2.18651 0.518082 0.898056 2.18651 2.43843 0.898056 1.24277 2.43843 2.56213 1.24277 1.6114 5.82902 6.22047 4.8778 5.07261 6.22047 6.73468 5.07261 5.43682 6.73468 7.37855 5.43682 6.07546 7.37855 7.90218 6.07546 6.60269 7.90218 8.23721 6.60269 6.85183 8.23721 8.46093 6.85183 7.07236 8.46093 8.87501 7.07236 7.37942 8.87501 9.31227 7.37942 7.5822 9.31227 9.56249 7.5822 7.63992 9.56249 9.74684 7.63992 7.74271 11.1929 11.3204 9.53663 9.39761 13.3918 13.8478 11.3295 11.6372 13.8478 14.2906 11.6372 12.0218 15.6903 15.0267 13.4009 13.8592 15.0267 15.504 13.8592 13.3068 15.504 15.7544 13.3068 13.4432 15.7544 15.8578 13.4432 13.7461 15.8578 15.9261 13.7461 13.7334 15.9261 15.9067 13.7334 13.6214 0 -1.42311 0 -0.327291 -1.42311 -0.864488 -0.327291 -0.822285 0.518082 0.898056 -0.701668 -0.287101 0.898056 1.24277 -0.287101 0.280266 1.24277 1.6114 0.280266 0.733345 1.6114 2.1044 0.733345 1.1906 5.43682 6.07546 4.14119 5.0127 6.07546 6.60269 5.0127 5.26674 6.60269 6.85183 5.26674 5.42967 6.85183 7.07236 5.42967 5.72901 7.07236 7.37942 5.72901 6.02615 7.37942 7.5822 6.02615 6.18735 7.5822 7.63992 6.18735 6.31648 9.57522 9.53663 7.68664 7.72964 10.8165 10.8495 9.05613 9.18327 11.6372 12.0218 9.25678 9.70475 12.0218 12.4395 9.70475 10.1394 12.4395 12.8598 10.1394 10.5712 13.8592 13.3068 11.4232 11.8632 13.3068 13.4432 11.8632 12.4291 13.4432 13.7461 12.4291 11.3378 13.7461 13.7334 11.3378 11.7119 13.7334 13.6214 11.7119 11.7277 0 -0.327291 0 -0.245699 -0.327291 -0.822285 -0.245699 -0.548894 -0.822285 -1.0825 -0.548894 -0.921786 -1.0825 -1.56524 -0.921786 -1.16849 0.280266 0.733345 -0.692923 -0.243183 0.733345 1.1906 -0.243183 0.32411 1.1906 1.65296 0.32411 0.768015 1.65296 2.07666 0.768015 1.21687 5.42967 5.72901 4.05521 4.68442 5.72901 6.02615 4.68442 4.85635 6.02615 6.18735 4.85635 4.95753 6.18735 6.31648 4.95753 5.32063 8.97764 9.05613 6.77681 6.88438 9.05613 9.18327 6.88438 7.2913 9.18327 9.3351 7.2913 7.27844 9.3351 9.3496 7.27844 7.24515 10.1394 10.5712 7.80219 8.24134 10.5712 11.0146 8.24134 8.64314 12.4291 11.3378 10.0382 10.6571 11.3378 11.7119 10.6571 10.7016 11.7119 11.7277 10.7016 10.1937 0 -0.245699 0 -0.170209 -0.245699 -0.548894 -0.170209 -0.397022 -0.548894 -0.921786 -0.397022 -0.622005 -0.921786 -1.16849 -0.622005 -0.83083 -1.16849 -1.40399 -0.83083 -1.05678 -1.40399 -1.6605 -1.05678 -1.13913 0.32411 0.768015 -0.558556 -0.101981 0.768015 1.21687 -0.101981 0.472272 1.21687 1.71473 0.472272 0.945267 1.71473 2.26857 0.945267 1.36959 2.26857 2.48749 1.36959 1.78728 4.85635 4.95753 3.81356 3.8792 5.75983 5.9559 4.59316 4.46955 6.61689 6.77681 4.88598 4.9522 6.77681 6.88438 4.9522 5.554 6.88438 7.2913 5.554 5.51647 7.2913 7.27844 5.51647 5.48937 7.27844 7.24515 5.48937 5.40415 7.24515 7.30094 5.40415 4.07831 8.24134 8.64314 5.8428 6.24876 8.64314 9.0625 6.24876 6.66654 9.0625 9.49778 6.66654 7.08954 10.7016 10.1937 8.24865 9.44642 0 -0.170209 0 -0.111127 -0.170209 -0.397022 -0.111127 -0.24818 -0.397022 -0.622005 -0.24818 -0.394917 -0.622005 -0.83083 -0.394917 -0.540094 -0.83083 -1.05678 -0.540094 -0.655839 -1.05678 -1.13913 -0.655839 -0.750752 -1.13913 -1.23098 -0.750752 -0.853481 -1.23098 -1.38058 -0.853481 -0.856674 0.945267 1.36959 0.174214 0.665858 1.36959 1.78728 0.665858 1.10672 1.78728 2.41226 1.10672 1.51823 2.41226 2.87595 1.51823 1.9366 4.65386 4.59316 3.0458 3.14839 4.88598 4.9522 3.36225 3.53637 4.9522 5.554 3.53637 3.55372 5.554 5.51647 3.55372 3.53114 5.51647 5.48937 3.53114 3.51506 5.48937 5.40415 3.51506 3.54869 5.40415 4.07831 3.54869 5.48942 4.07831 4.94108 5.48942 4.00678 4.94108 5.52713 4.00678 3.24288 6.66654 7.08954 4.20739 4.62367 7.08954 7.54513 4.62367 4.99372 0 -0.111127 0 -0.0539293 -0.111127 -0.24818 -0.0539293 -0.120389 -0.24818 -0.394917 -0.120389 -0.192517 -0.394917 -0.540094 -0.192517 -0.261029 -0.540094 -0.655839 -0.261029 -0.321763 -0.655839 -0.750752 -0.321763 -0.373867 -0.750752 -0.853481 -0.373867 -0.397472 -0.853481 -0.856674 -0.397472 -0.393715 -0.856674 -1.02554 -0.393715 -0.225964 -1.02554 -2.06491 -0.225964 0.371247 -2.06491 -0.384997 0.371247 -1.74446 0.665858 1.10672 0.0401922 0.465183 1.10672 1.51823 0.465183 0.727369 1.51823 1.9366 0.727369 0.95723 1.9366 2.44545 0.95723 1.15558 2.44545 2.7307 1.15558 1.31734 2.7307 2.94939 1.31734 1.36471 2.94939 3.0458 1.36471 1.33583 3.23657 3.36225 1.58581 1.7368 3.36225 3.53637 1.7368 1.77256 3.53637 3.55372 1.77256 1.65886 3.55372 3.53114 1.65886 1.54252 3.53114 3.51506 1.54252 1.36673 3.51506 3.54869 1.36673 1.18439 3.54869 5.48942 1.18439 1.51391 5.48942 4.00678 1.51391 1.80875 4.00678 3.24288 1.80875 1.90994 3.24288 3.61375 1.90994 1.68097 3.61375 3.9259 1.68097 1.28859 4.62367 4.99372 2.1275 2.48172 4.99372 5.40449 2.48172 2.76384 5.40449 5.89515 2.76384 3.08656 0 -0.0539293 0 8.43949e-12 -0.0539293 -0.120389 8.43949e-12 2.20639e-11 -0.120389 -0.192517 2.20639e-11 3.89117e-11 -0.192517 -0.261029 3.89117e-11 6.07725e-11 -0.261029 -0.321763 6.07725e-11 7.27729e-11 -0.321763 -0.373867 7.27729e-11 8.90887e-11 -0.373867 -0.397472 8.90887e-11 1.02025e-10 -0.397472 -0.393715 1.02025e-10 1.3361e-10 -0.393715 -0.225964 1.3361e-10 1.51021e-10 -0.225964 0.371247 1.51021e-10 1.02968e-10 0.371247 -1.74446 1.02968e-10 1.085e-10 -1.74446 -1.17712 1.085e-10 7.52158e-12 -1.17712 -0.499646 7.52158e-12 -1.39338e-10 0.465183 0.727369 1.08736e-11 1.15177e-11 0.727369 0.95723 1.15177e-11 1.2748e-11 0.95723 1.15558 1.2748e-11 1.40204e-11 1.15558 1.31734 1.40204e-11 1.56695e-11 1.31734 1.36471 1.56695e-11 1.71987e-11 1.36471 1.33583 1.71987e-11 1.76488e-11 1.58581 1.7368 4.64366e-11 4.65139e-11 1.7368 1.77256 4.65139e-11 4.6446e-11 1.77256 1.65886 4.6446e-11 4.6483e-11 1.65886 1.54252 4.6483e-11 4.69233e-11 1.54252 1.36673 4.69233e-11 5.1157e-11 1.36673 1.18439 5.1157e-11 -5.5387e-10 1.18439 1.51391 -5.5387e-10 -1.38693e-09 1.51391 1.80875 -1.38693e-09 -1.85269e-09 1.80875 1.90994 -1.85269e-09 -4.65324e-09 1.90994 1.68097 -4.65324e-09 -1.30994e-09 1.68097 1.28859 -1.30994e-09 -2.53057e-09 1.28859 1.80788 -2.53057e-09 1.98072e-10 2.48172 2.76384 -1.63183e-11 -1.7238e-11 2.76384 3.08656 -1.7238e-11 -1.63553e-11 3.08656 3.19119 -1.63553e-11 -1.61613e-11 0 8.43949e-12 0 0.0539293 8.43949e-12 2.20639e-11 0.0539293 0.120389 2.20639e-11 3.89117e-11 0.120389 0.192517 3.89117e-11 6.07725e-11 0.192517 0.261029 6.07725e-11 7.27729e-11 0.261029 0.321763 7.27729e-11 8.90887e-11 0.321763 0.373867 8.90887e-11 1.02025e-10 0.373867 0.397472 1.02025e-10 1.3361e-10 0.397472 0.393715 1.3361e-10 1.51021e-10 0.393715 0.225964 1.51021e-10 1.02968e-10 0.225964 -0.371247 1.02968e-10 1.085e-10 -0.371247 1.74446 1.085e-10 7.52158e-12 1.74446 1.17712 7.52158e-12 -1.39338e-10 1.17712 0.499646 1.08736e-11 1.15177e-11 -0.465183 -0.727369 1.15177e-11 1.2748e-11 -0.727369 -0.95723 1.2748e-11 1.40204e-11 -0.95723 -1.15558 1.40204e-11 1.56695e-11 -1.15558 -1.31734 1.56695e-11 1.71987e-11 -1.31734 -1.36471 1.71987e-11 1.76488e-11 -1.36471 -1.33583 4.64366e-11 4.65139e-11 -1.58581 -1.7368 4.65139e-11 4.6446e-11 -1.7368 -1.77256 4.6446e-11 4.6483e-11 -1.77256 -1.65886 4.6483e-11 4.69233e-11 -1.65886 -1.54252 4.69233e-11 5.1157e-11 -1.54252 -1.36673 5.1157e-11 -5.5387e-10 -1.36673 -1.18439 -5.5387e-10 -1.38693e-09 -1.18439 -1.51391 -1.38693e-09 -1.85269e-09 -1.51391 -1.80875 -1.85269e-09 -4.65324e-09 -1.80875 -1.90994 -4.65324e-09 -1.30994e-09 -1.90994 -1.68097 -1.30994e-09 -2.53057e-09 -1.68097 -1.28859 -2.53057e-09 1.98072e-10 -1.28859 -1.80788 -1.63183e-11 -1.7238e-11 -2.48172 -2.76384 -1.7238e-11 -1.63553e-11 -2.76384 -3.08656 -1.63553e-11 -1.61613e-11 -3.08656 -3.19119 0 0.0539293 0 0.111127 0.0539293 0.120389 0.111127 0.24818 0.120389 0.192517 0.24818 0.394917 0.192517 0.261029 0.394917 0.540094 0.261029 0.321763 0.540094 0.655839 0.321763 0.373867 0.655839 0.750752 0.373867 0.397472 0.750752 0.853481 0.397472 0.393715 0.853481 0.856674 0.393715 0.225964 0.856674 1.02554 0.225964 -0.371247 1.02554 2.06491 -0.371247 1.74446 2.06491 0.384997 -0.0401922 -0.465183 -0.665858 -1.10672 -0.465183 -0.727369 -1.10672 -1.51823 -0.727369 -0.95723 -1.51823 -1.9366 -0.95723 -1.15558 -1.9366 -2.44545 -1.15558 -1.31734 -2.44545 -2.7307 -1.31734 -1.36471 -2.7307 -2.94939 -1.36471 -1.33583 -2.94939 -3.0458 -1.58581 -1.7368 -3.23657 -3.36225 -1.7368 -1.77256 -3.36225 -3.53637 -1.77256 -1.65886 -3.53637 -3.55372 -1.65886 -1.54252 -3.55372 -3.53114 -1.54252 -1.36673 -3.53114 -3.51506 -1.36673 -1.18439 -3.51506 -3.54869 -1.18439 -1.51391 -3.54869 -5.48942 -1.51391 -1.80875 -5.48942 -4.00678 -1.80875 -1.90994 -4.00678 -3.24288 -1.90994 -1.68097 -3.24288 -3.61375 -1.68097 -1.28859 -3.61375 -3.9259 -2.1275 -2.48172 -4.62367 -4.99372 -2.48172 -2.76384 -4.99372 -5.40449 -2.76384 -3.08656 -5.40449 -5.89515 0 0.111127 0 0.170209 0.111127 0.24818 0.170209 0.397022 0.24818 0.394917 0.397022 0.622005 0.394917 0.540094 0.622005 0.83083 0.540094 0.655839 0.83083 1.05678 0.655839 0.750752 1.05678 1.13913 0.750752 0.853481 1.13913 1.23098 0.853481 0.856674 1.23098 1.38058 -0.174214 -0.665858 -0.945267 -1.36959 -0.665858 -1.10672 -1.36959 -1.78728 -1.10672 -1.51823 -1.78728 -2.41226 -1.51823 -1.9366 -2.41226 -2.87595 -3.0458 -3.14839 -4.65386 -4.59316 -3.36225 -3.53637 -4.88598 -4.9522 -3.53637 -3.55372 -4.9522 -5.554 -3.55372 -3.53114 -5.554 -5.51647 -3.53114 -3.51506 -5.51647 -5.48937 -3.51506 -3.54869 -5.48937 -5.40415 -3.54869 -5.48942 -5.40415 -4.07831 -5.48942 -4.00678 -4.07831 -4.94108 -4.00678 -3.24288 -4.94108 -5.52713 -4.20739 -4.62367 -6.66654 -7.08954 -4.62367 -4.99372 -7.08954 -7.54513 0 0.170209 0 0.245699 0.170209 0.397022 0.245699 0.548894 0.397022 0.622005 0.548894 0.921786 0.622005 0.83083 0.921786 1.16849 0.83083 1.05678 1.16849 1.40399 1.05678 1.13913 1.40399 1.6605 0.558556 0.101981 -0.32411 -0.768015 0.101981 -0.472272 -0.768015 -1.21687 -0.472272 -0.945267 -1.21687 -1.71473 -0.945267 -1.36959 -1.71473 -2.26857 -1.36959 -1.78728 -2.26857 -2.48749 -3.81356 -3.8792 -4.85635 -4.95753 -4.59316 -4.46955 -5.75983 -5.9559 -4.88598 -4.9522 -6.61689 -6.77681 -4.9522 -5.554 -6.77681 -6.88438 -5.554 -5.51647 -6.88438 -7.2913 -5.51647 -5.48937 -7.2913 -7.27844 -5.48937 -5.40415 -7.27844 -7.24515 -5.40415 -4.07831 -7.24515 -7.30094 -5.8428 -6.24876 -8.24134 -8.64314 -6.24876 -6.66654 -8.64314 -9.0625 -6.66654 -7.08954 -9.0625 -9.49778 -8.24865 -9.44642 -10.7016 -10.1937 0 0.245699 0 0.327291 0.245699 0.548894 0.327291 0.822285 0.548894 0.921786 0.822285 1.0825 0.921786 1.16849 1.0825 1.56524 0.692923 0.243183 -0.280266 -0.733345 0.243183 -0.32411 -0.733345 -1.1906 -0.32411 -0.768015 -1.1906 -1.65296 -0.768015 -1.21687 -1.65296 -2.07666 -4.05521 -4.68442 -5.42967 -5.72901 -4.68442 -4.85635 -5.72901 -6.02615 -4.85635 -4.95753 -6.02615 -6.18735 -4.95753 -5.32063 -6.18735 -6.31648 -6.77681 -6.88438 -8.97764 -9.05613 -6.88438 -7.2913 -9.05613 -9.18327 -7.2913 -7.27844 -9.18327 -9.3351 -7.27844 -7.24515 -9.3351 -9.3496 -7.80219 -8.24134 -10.1394 -10.5712 -8.24134 -8.64314 -10.5712 -11.0146 -10.0382 -10.6571 -12.4291 -11.3378 -10.6571 -10.7016 -11.3378 -11.7119 -10.7016 -10.1937 -11.7119 -11.7277 0 0.327291 0 1.42311 0.327291 0.822285 1.42311 0.864488 0.701668 0.287101 -0.518082 -0.898056 0.287101 -0.280266 -0.898056 -1.24277 -0.280266 -0.733345 -1.24277 -1.6114 -0.733345 -1.1906 -1.6114 -2.1044 -4.14119 -5.0127 -5.43682 -6.07546 -5.0127 -5.26674 -6.07546 -6.60269 -5.26674 -5.42967 -6.60269 -6.85183 -5.42967 -5.72901 -6.85183 -7.07236 -5.72901 -6.02615 -7.07236 -7.37942 -6.02615 -6.18735 -7.37942 -7.5822 -6.18735 -6.31648 -7.5822 -7.63992 -7.68664 -7.72964 -9.57522 -9.53663 -9.05613 -9.18327 -10.8165 -10.8495 -9.25678 -9.70475 -11.6372 -12.0218 -9.70475 -10.1394 -12.0218 -12.4395 -10.1394 -10.5712 -12.4395 -12.8598 -11.4232 -11.8632 -13.8592 -13.3068 -11.8632 -12.4291 -13.3068 -13.4432 -12.4291 -11.3378 -13.4432 -13.7461 -11.3378 -11.7119 -13.7461 -13.7334 -11.7119 -11.7277 -13.7334 -13.6214 0.44981 0.04034 -0.89213 -1.35522 0.04034 -0.518082 -1.35522 -1.80276 -0.518082 -0.898056 -1.80276 -2.18651 -0.898056 -1.24277 -2.18651 -2.43843 -1.24277 -1.6114 -2.43843 -2.56213 -4.8778 -5.07261 -5.82902 -6.22047 -5.07261 -5.43682 -6.22047 -6.73468 -5.43682 -6.07546 -6.73468 -7.37855 -6.07546 -6.60269 -7.37855 -7.90218 -6.60269 -6.85183 -7.90218 -8.23721 -6.85183 -7.07236 -8.23721 -8.46093 -7.07236 -7.37942 -8.46093 -8.87501 -7.37942 -7.5822 -8.87501 -9.31227 -7.5822 -7.63992 -9.31227 -9.56249 -7.63992 -7.74271 -9.56249 -9.74684 -9.53663 -9.39761 -11.1929 -11.3204 -11.3295 -11.6372 -13.3918 -13.8478 -11.6372 -12.0218 -13.8478 -14.2906 -13.4009 -13.8592 -15.6903 -15.0267 -13.8592 -13.3068 -15.0267 -15.504 -13.3068 -13.4432 -15.504 -15.7544 -13.4432 -13.7461 -15.7544 -15.8578 -13.7461 -13.7334 -15.8578 -15.9261 -13.7334 -13.6214 -15.9261 -15.9067 0.187477 -0.333521 -0.910837 -1.55394 -0.333521 -0.89213 -1.55394 -2.18581 -0.89213 -1.35522 -2.18581 -2.77153 -1.35522 -1.80276 -2.77153 -3.28415 -1.80276 -2.18651 -3.28415 -3.72226 -2.18651 -2.43843 -3.72226 -4.1089 -2.43843 -2.56213 -4.1089 -4.54419 -11.1929 -11.3204 -12.9449 -13.3578 -11.3204 -11.7198 -13.3578 -13.7634 -12.4116 -12.9164 -14.2015 -14.6874 -12.9164 -13.3918 -14.6874 -15.2458 -14.7 -15.1783 -16.9873 -16.4119 -15.1783 -15.6903 -16.4119 -16.9711 -15.6903 -15.0267 -16.9711 -17.5879 -15.0267 -15.504 -17.5879 -17.9696 -15.504 -15.7544 -17.9696 -18.1597 -15.7544 -15.8578 -18.1597 -18.281 -15.8578 -15.9261 -18.281 -18.325 -15.9261 -15.9067 -18.325 -18.3372 0 -0.334058 0 -0.967164 -0.334058 -0.910837 -0.967164 -1.98489 -0.910837 -1.55394 -1.98489 -2.87135 -1.55394 -2.18581 -2.87135 -3.64227 -2.18581 -2.77153 -3.64227 -4.31683 -2.77153 -3.28415 -4.31683 -4.91197 -3.28415 -3.72226 -4.91197 -5.45033 -3.72226 -4.1089 -5.45033 -5.9756 -4.1089 -4.54419 -5.9756 -6.52147 -12.3883 -12.9449 -14.526 -14.9656 -12.9449 -13.3578 -14.9656 -15.3522 -13.3578 -13.7634 -15.3522 -15.6617 -13.7634 -14.2015 -15.6617 -15.932 -14.2015 -14.6874 -15.932 -16.3611 -16.4435 -16.9873 -18.1651 -18.0001 -16.9873 -16.4119 -18.0001 -19.0437 -16.4119 -16.9711 -19.0437 -19.6817 -16.9711 -17.5879 -19.6817 -20.158 -17.5879 -17.9696 -20.158 -20.5543 -17.9696 -18.1597 -20.5543 -20.7744 -18.1597 -18.281 -20.7744 -20.877 -18.281 -18.325 -20.877 -20.917 -18.325 -18.3372 -20.917 -20.9269 0 -0.967164 0 -1.957 -0.967164 -1.98489 -1.957 -3.38184 -1.98489 -2.87135 -3.38184 -4.47023 -2.87135 -3.64227 -4.47023 -5.33353 -3.64227 -4.31683 -5.33353 -6.04672 -4.31683 -4.91197 -6.04672 -6.66966 -4.91197 -5.45033 -6.66966 -7.2572 -5.45033 -5.9756 -7.2572 -7.84474 -5.9756 -6.52147 -7.84474 -8.41639 -6.52147 -7.06426 -8.41639 -8.93607 -7.06426 -7.61435 -8.93607 -9.39309 -7.61435 -8.15181 -9.39309 -9.84495 -8.15181 -8.68538 -9.84495 -10.3496 -8.68538 -9.24225 -10.3496 -10.9092 -9.24225 -9.83033 -10.9092 -11.4927 -9.83033 -10.4314 -11.4927 -12.1056 -10.4314 -11.0333 -12.1056 -12.766 -11.0333 -11.656 -12.766 -13.4607 -11.656 -12.3025 -13.4607 -14.1717 -12.3025 -12.9231 -14.1717 -14.9034 -12.9231 -13.4891 -14.9034 -15.6472 -13.4891 -14.0301 -15.6472 -16.3228 -14.0301 -14.526 -16.3228 -16.8423 -14.526 -14.9656 -16.8423 -17.2191 -14.9656 -15.3522 -17.2191 -17.5045 -15.3522 -15.6617 -17.5045 -17.6753 -15.6617 -15.932 -17.6753 -17.717 -16.9484 -17.7745 -18.4681 -16.9462 -17.7745 -18.1651 -16.9462 -19.6138 -18.1651 -18.0001 -19.6138 -21.211 -18.0001 -19.0437 -21.211 -22.0716 -19.0437 -19.6817 -22.0716 -22.6946 -19.6817 -20.158 -22.6946 -23.1353 -20.158 -20.5543 -23.1353 -23.4391 -20.5543 -20.7744 -23.4391 -23.6054 -20.7744 -20.877 -23.6054 -23.637 -20.877 -20.917 -23.637 -23.6121 -20.917 -20.9269 -23.6121 -23.5991 17.717 17.7321 16.8245 16.8737 17.7321 17.3933 16.8737 17.1432 16.8245 16.8737 15.932 16.1466 16.8737 17.1432 16.1466 16.3611 17.3933 18.2307 17.1432 17.3781 18.2307 18.4681 17.3781 17.7082 17.1432 17.3781 16.3611 16.5874 17.3781 17.7082 16.5874 16.9484 6.52147 6.79287 5.53283 5.82997 6.79287 7.06426 5.82997 6.12862 5.53283 5.82997 4.54419 4.83334 5.82997 6.12862 4.83334 5.17053 7.06426 7.3393 6.12862 6.42977 7.3393 7.61435 6.42977 6.73249 6.12862 6.42977 5.17053 5.51326 6.42977 6.73249 5.51326 5.85977 7.61435 7.88308 6.73249 7.02832 7.88308 8.15181 7.02832 7.31122 6.73249 7.02832 5.85977 6.20003 7.02832 7.31122 6.20003 6.51739 8.15181 8.4186 7.31122 7.58355 8.4186 8.68538 7.58355 7.84367 7.31122 7.58355 6.51739 6.80328 7.58355 7.84367 6.80328 7.05407 8.68538 8.96382 7.84367 8.10116 8.96382 9.24225 8.10116 8.37458 7.84367 8.10116 7.05407 7.28538 8.10116 8.37458 7.28538 7.52599 9.24225 9.53629 8.37458 8.66966 9.53629 9.83033 8.66966 8.98377 8.37458 8.66966 7.52599 7.81599 8.66966 8.98377 7.81599 8.14775 9.83033 10.1308 8.98377 9.29442 10.1308 10.4314 9.29442 9.59295 8.98377 9.29442 8.14775 8.48282 9.29442 9.59295 8.48282 8.78485 10.4314 10.7324 9.59295 9.88053 10.7324 11.0333 9.88053 10.1632 9.59295 9.88053 8.78485 9.05914 9.88053 10.1632 9.05914 9.31734 11.0333 11.3447 10.1632 10.4499 11.3447 11.656 10.4499 10.7483 10.1632 10.4499 9.31734 9.57951 10.4499 10.7483 9.57951 9.85248 11.656 11.9793 10.7483 11.0553 11.9793 12.3025 11.0553 11.3697 10.7483 11.0553 9.85248 10.1422 11.0553 11.3697 10.1422 10.4447 12.3025 12.6128 11.3697 11.6754 12.6128 12.9231 11.6754 11.9487 11.3697 11.6754 10.4447 10.7324 11.6754 11.9487 10.7324 10.9922 12.9231 13.2061 11.9487 12.2096 13.2061 13.4891 12.2096 12.4489 11.9487 12.2096 10.9922 11.2264 12.2096 12.4489 11.2264 11.4264 13.4891 13.7596 12.4489 12.6754 13.7596 14.0301 12.6754 12.9091 12.4489 12.6754 11.4264 11.6005 12.6