# vtk DataFile Version 3.0
#This file was generated by the deal.II library on 2016/3/9 at 8:35:57
ASCII
DATASET UNSTRUCTURED_GRID

POINTS 512 double
0 0 0
0.125 0 0
0 0.125 0
0.125 0.125 0
0.125 0 0
0.25 0 0
0.125 0.125 0
0.25 0.125 0
0 0.125 0
0.125 0.125 0
0 0.25 0
0.125 0.25 0
0.125 0.125 0
0.25 0.125 0
0.125 0.25 0
0.25 0.25 0
0.25 0 0
0.375 0 0
0.25 0.125 0
0.375 0.125 0
0.375 0 0
0.5 0 0
0.375 0.125 0
0.5 0.125 0
0.25 0.125 0
0.375 0.125 0
0.25 0.25 0
0.375 0.25 0
0.375 0.125 0
0.5 0.125 0
0.375 0.25 0
0.5 0.25 0
0 0.25 0
0.125 0.25 0
0 0.375 0
0.125 0.375 0
0.125 0.25 0
0.25 0.25 0
0.125 0.375 0
0.25 0.375 0
0 0.375 0
0.125 0.375 0
0 0.5 0
0.125 0.5 0
0.125 0.375 0
0.25 0.375 0
0.125 0.5 0
0.25 0.5 0
0.25 0.25 0
0.375 0.25 0
0.25 0.375 0
0.375 0.375 0
0.375 0.25 0
0.5 0.25 0
0.375 0.375 0
0.5 0.375 0
0.25 0.375 0
0.375 0.375 0
0.25 0.5 0
0.375 0.5 0
0.375 0.375 0
0.5 0.375 0
0.375 0.5 0
0.5 0.5 0
0.5 0 0
0.625 0 0
0.5 0.125 0
0.625 0.125 0
0.625 0 0
0.75 0 0
0.625 0.125 0
0.75 0.125 0
0.5 0.125 0
0.625 0.125 0
0.5 0.25 0
0.625 0.25 0
0.625 0.125 0
0.75 0.125 0
0.625 0.25 0
0.75 0.25 0
0.75 0 0
0.875 0 0
0.75 0.125 0
0.875 0.125 0
0.875 0 0
1 0 0
0.875 0.125 0
1 0.125 0
0.75 0.125 0
0.875 0.125 0
0.75 0.25 0
0.875 0.25 0
0.875 0.125 0
1 0.125 0
0.875 0.25 0
1 0.25 0
0.5 0.25 0
0.625 0.25 0
0.5 0.375 0
0.625 0.375 0
0.625 0.25 0
0.75 0.25 0
0.625 0.375 0
0.75 0.375 0
0.5 0.375 0
0.625 0.375 0
0.5 0.5 0
0.625 0.5 0
0.625 0.375 0
0.75 0.375 0
0.625 0.5 0
0.75 0.5 0
0.75 0.25 0
0.875 0.25 0
0.75 0.375 0
0.875 0.375 0
0.875 0.25 0
1 0.25 0
0.875 0.375 0
1 0.375 0
0.75 0.375 0
0.875 0.375 0
0.75 0.5 0
0.875 0.5 0
0.875 0.375 0
1 0.375 0
0.875 0.5 0
1 0.5 0
1 0 0
1.125 0 0
1 0.125 0
1.125 0.125 0
1.125 0 0
1.25 0 0
1.125 0.125 0
1.25 0.125 0
1 0.125 0
1.125 0.125 0
1 0.25 0
1.125 0.25 0
1.125 0.125 0
1.25 0.125 0
1.125 0.25 0
1.25 0.25 0
1.25 0 0
1.375 0 0
1.25 0.125 0
1.375 0.125 0
1.375 0 0
1.5 0 0
1.375 0.125 0
1.5 0.125 0
1.25 0.125 0
1.375 0.125 0
1.25 0.25 0
1.375 0.25 0
1.375 0.125 0
1.5 0.125 0
1.375 0.25 0
1.5 0.25 0
1 0.25 0
1.125 0.25 0
1 0.375 0
1.125 0.375 0
1.125 0.25 0
1.25 0.25 0
1.125 0.375 0
1.25 0.375 0
1 0.375 0
1.125 0.375 0
1 0.5 0
1.125 0.5 0
1.125 0.375 0
1.25 0.375 0
1.125 0.5 0
1.25 0.5 0
1.25 0.25 0
1.375 0.25 0
1.25 0.375 0
1.375 0.375 0
1.375 0.25 0
1.5 0.25 0
1.375 0.375 0
1.5 0.375 0
1.25 0.375 0
1.375 0.375 0
1.25 0.5 0
1.375 0.5 0
1.375 0.375 0
1.5 0.375 0
1.375 0.5 0
1.5 0.5 0
1.5 0 0
1.625 0 0
1.5 0.125 0
1.625 0.125 0
1.625 0 0
1.75 0 0
1.625 0.125 0
1.75 0.125 0
1.5 0.125 0
1.625 0.125 0
1.5 0.25 0
1.625 0.25 0
1.625 0.125 0
1.75 0.125 0
1.625 0.25 0
1.75 0.25 0
1.75 0 0
1.875 0 0
1.75 0.125 0
1.875 0.125 0
1.875 0 0
2 0 0
1.875 0.125 0
2 0.125 0
1.75 0.125 0
1.875 0.125 0
1.75 0.25 0
1.875 0.25 0
1.875 0.125 0
2 0.125 0
1.875 0.25 0
2 0.25 0
1.5 0.25 0
1.625 0.25 0
1.5 0.375 0
1.625 0.375 0
1.625 0.25 0
1.75 0.25 0
1.625 0.375 0
1.75 0.375 0
1.5 0.375 0
1.625 0.375 0
1.5 0.5 0
1.625 0.5 0
1.625 0.375 0
1.75 0.375 0
1.625 0.5 0
1.75 0.5 0
1.75 0.25 0
1.875 0.25 0
1.75 0.375 0
1.875 0.375 0
1.875 0.25 0
2 0.25 0
1.875 0.375 0
2 0.375 0
1.75 0.375 0
1.875 0.375 0
1.75 0.5 0
1.875 0.5 0
1.875 0.375 0
2 0.375 0
1.875 0.5 0
2 0.5 0
0 0.5 0
0.125 0.5 0
0 0.625 0
0.125 0.625 0
0.125 0.5 0
0.25 0.5 0
0.125 0.625 0
0.25 0.625 0
0 0.625 0
0.125 0.625 0
0 0.75 0
0.125 0.75 0
0.125 0.625 0
0.25 0.625 0
0.125 0.75 0
0.25 0.75 0
0.25 0.5 0
0.375 0.5 0
0.25 0.625 0
0.375 0.625 0
0.375 0.5 0
0.5 0.5 0
0.375 0.625 0
0.5 0.625 0
0.25 0.625 0
0.375 0.625 0
0.25 0.75 0
0.375 0.75 0
0.375 0.625 0
0.5 0.625 0
0.375 0.75 0
0.5 0.75 0
0 0.75 0
0.125 0.75 0
0 0.875 0
0.125 0.875 0
0.125 0.75 0
0.25 0.75 0
0.125 0.875 0
0.25 0.875 0
0 0.875 0
0.125 0.875 0
0 1 0
0.125 1 0
0.125 0.875 0
0.25 0.875 0
0.125 1 0
0.25 1 0
0.25 0.75 0
0.375 0.75 0
0.25 0.875 0
0.375 0.875 0
0.375 0.75 0
0.5 0.75 0
0.375 0.875 0
0.5 0.875 0
0.25 0.875 0
0.375 0.875 0
0.25 1 0
0.375 1 0
0.375 0.875 0
0.5 0.875 0
0.375 1 0
0.5 1 0
0.5 0.5 0
0.625 0.5 0
0.5 0.625 0
0.625 0.625 0
0.625 0.5 0
0.75 0.5 0
0.625 0.625 0
0.75 0.625 0
0.5 0.625 0
0.625 0.625 0
0.5 0.75 0
0.625 0.75 0
0.625 0.625 0
0.75 0.625 0
0.625 0.75 0
0.75 0.75 0
0.75 0.5 0
0.875 0.5 0
0.75 0.625 0
0.875 0.625 0
0.875 0.5 0
1 0.5 0
0.875 0.625 0
1 0.625 0
0.75 0.625 0
0.875 0.625 0
0.75 0.75 0
0.875 0.75 0
0.875 0.625 0
1 0.625 0
0.875 0.75 0
1 0.75 0
0.5 0.75 0
0.625 0.75 0
0.5 0.875 0
0.625 0.875 0
0.625 0.75 0
0.75 0.75 0
0.625 0.875 0
0.75 0.875 0
0.5 0.875 0
0.625 0.875 0
0.5 1 0
0.625 1 0
0.625 0.875 0
0.75 0.875 0
0.625 1 0
0.75 1 0
0.75 0.75 0
0.875 0.75 0
0.75 0.875 0
0.875 0.875 0
0.875 0.75 0
1 0.75 0
0.875 0.875 0
1 0.875 0
0.75 0.875 0
0.875 0.875 0
0.75 1 0
0.875 1 0
0.875 0.875 0
1 0.875 0
0.875 1 0
1 1 0
1 0.5 0
1.125 0.5 0
1 0.625 0
1.125 0.625 0
1.125 0.5 0
1.25 0.5 0
1.125 0.625 0
1.25 0.625 0
1 0.625 0
1.125 0.625 0
1 0.75 0
1.125 0.75 0
1.125 0.625 0
1.25 0.625 0
1.125 0.75 0
1.25 0.75 0
1.25 0.5 0
1.375 0.5 0
1.25 0.625 0
1.375 0.625 0
1.375 0.5 0
1.5 0.5 0
1.375 0.625 0
1.5 0.625 0
1.25 0.625 0
1.375 0.625 0
1.25 0.75 0
1.375 0.75 0
1.375 0.625 0
1.5 0.625 0
1.375 0.75 0
1.5 0.75 0
1 0.75 0
1.125 0.75 0
1 0.875 0
1.125 0.875 0
1.125 0.75 0
1.25 0.75 0
1.125 0.875 0
1.25 0.875 0
1 0.875 0
1.125 0.875 0
1 1 0
1.125 1 0
1.125 0.875 0
1.25 0.875 0
1.125 1 0
1.25 1 0
1.25 0.75 0
1.375 0.75 0
1.25 0.875 0
1.375 0.875 0
1.375 0.75 0
1.5 0.75 0
1.375 0.875 0
1.5 0.875 0
1.25 0.875 0
1.375 0.875 0
1.25 1 0
1.375 1 0
1.375 0.875 0
1.5 0.875 0
1.375 1 0
1.5 1 0
1.5 0.5 0
1.625 0.5 0
1.5 0.625 0
1.625 0.625 0
1.625 0.5 0
1.75 0.5 0
1.625 0.625 0
1.75 0.625 0
1.5 0.625 0
1.625 0.625 0
1.5 0.75 0
1.625 0.75 0
1.625 0.625 0
1.75 0.625 0
1.625 0.75 0
1.75 0.75 0
1.75 0.5 0
1.875 0.5 0
1.75 0.625 0
1.875 0.625 0
1.875 0.5 0
2 0.5 0
1.875 0.625 0
2 0.625 0
1.75 0.625 0
1.875 0.625 0
1.75 0.75 0
1.875 0.75 0
1.875 0.625 0
2 0.625 0
1.875 0.75 0
2 0.75 0
1.5 0.75 0
1.625 0.75 0
1.5 0.875 0
1.625 0.875 0
1.625 0.75 0
1.75 0.75 0
1.625 0.875 0
1.75 0.875 0
1.5 0.875 0
1.625 0.875 0
1.5 1 0
1.625 1 0
1.625 0.875 0
1.75 0.875 0
1.625 1 0
1.75 1 0
1.75 0.75 0
1.875 0.75 0
1.75 0.875 0
1.875 0.875 0
1.875 0.75 0
2 0.75 0
1.875 0.875 0
2 0.875 0
1.75 0.875 0
1.875 0.875 0
1.75 1 0
1.875 1 0
1.875 0.875 0
2 0.875 0
1.875 1 0
2 1 0

CELLS 128 640
4	0	1	3	2
4	4	5	7	6
4	8	9	11	10
4	12	13	15	14
4	16	17	19	18
4	20	21	23	22
4	24	25	27	26
4	28	29	31	30
4	32	33	35	34
4	36	37	39	38
4	40	41	43	42
4	44	45	47	46
4	48	49	51	50
4	52	53	55	54
4	56	57	59	58
4	60	61	63	62
4	64	65	67	66
4	68	69	71	70
4	72	73	75	74
4	76	77	79	78
4	80	81	83	82
4	84	85	87	86
4	88	89	91	90
4	92	93	95	94
4	96	97	99	98
4	100	101	103	102
4	104	105	107	106
4	108	109	111	110
4	112	113	115	114
4	116	117	119	118
4	120	121	123	122
4	124	125	127	126
4	128	129	131	130
4	132	133	135	134
4	136	137	139	138
4	140	141	143	142
4	144	145	147	146
4	148	149	151	150
4	152	153	155	154
4	156	157	159	158
4	160	161	163	162
4	164	165	167	166
4	168	169	171	170
4	172	173	175	174
4	176	177	179	178
4	180	181	183	182
4	184	185	187	186
4	188	189	191	190
4	192	193	195	194
4	196	197	199	198
4	200	201	203	202
4	204	205	207	206
4	208	209	211	210
4	212	213	215	214
4	216	217	219	218
4	220	221	223	222
4	224	225	227	226
4	228	229	231	230
4	232	233	235	234
4	236	237	239	238
4	240	241	243	242
4	244	245	247	246
4	248	249	251	250
4	252	253	255	254
4	256	257	259	258
4	260	261	263	262
4	264	265	267	266
4	268	269	271	270
4	272	273	275	274
4	276	277	279	278
4	280	281	283	282
4	284	285	287	286
4	288	289	291	290
4	292	293	295	294
4	296	297	299	298
4	300	301	303	302
4	304	305	307	306
4	308	309	311	310
4	312	313	315	314
4	316	317	319	318
4	320	321	323	322
4	324	325	327	326
4	328	329	331	330
4	332	333	335	334
4	336	337	339	338
4	340	341	343	342
4	344	345	347	346
4	348	349	351	350
4	352	353	355	354
4	356	357	359	358
4	360	361	363	362
4	364	365	367	366
4	368	369	371	370
4	372	373	375	374
4	376	377	379	378
4	380	381	383	382
4	384	385	387	386
4	388	389	391	390
4	392	393	395	394
4	396	397	399	398
4	400	401	403	402
4	404	405	407	406
4	408	409	411	410
4	412	413	415	414
4	416	417	419	418
4	420	421	423	422
4	424	425	427	426
4	428	429	431	430
4	432	433	435	434
4	436	437	439	438
4	440	441	443	442
4	444	445	447	446
4	448	449	451	450
4	452	453	455	454
4	456	457	459	458
4	460	461	463	462
4	464	465	467	466
4	468	469	471	470
4	472	473	475	474
4	476	477	479	478
4	480	481	483	482
4	484	485	487	486
4	488	489	491	490
4	492	493	495	494
4	496	497	499	498
4	500	501	503	502
4	504	505	507	506
4	508	509	511	510

CELL_TYPES 128
 9 9 9 9 9 9 9 9 9 9 9 9 9 9 9 9 9 9 9 9 9 9 9 9 9 9 9 9 9 9 9 9 9 9 9 9 9 9 9 9 9 9 9 9 9 9 9 9 9 9 9 9 9 9 9 9 9 9 9 9 9 9 9 9 9 9 9 9 9 9 9 9 9 9 9 9 9 9 9 9 9 9 9 9 9 9 9 9 9 9 9 9 9 9 9 9 9 9 9 9 9 9 9 9 9 9 9 9 9 9 9 9 9 9 9 9 9 9 9 9 9 9 9 9 9 9 9 9
POINT_DATA 512
SCALARS x_displacement double 1
LOOKUP_TABLE default
0 4.38786 0 0.477684 4.38786 8.45262 0.477684 1.70523 0 0.477684 0 -2.36014 0.477684 1.70523 -2.36014 -4.01555 8.45262 11.7888 1.70523 3.28579 11.7888 14.2973 3.28579 4.81167 1.70523 3.28579 -4.01555 -3.9456 3.28579 4.81167 -3.9456 -2.89659 0 -2.36014 0 -5.18632 -2.36014 -4.01555 -5.18632 -9.26821 0 -5.18632 0 -5.39782e-11 -5.18632 -9.26821 -5.39782e-11 -3.87715e-10 -4.01555 -3.9456 -9.26821 -7.47731 -3.9456 -2.89659 -7.47731 -2.96731 -9.26821 -7.47731 -3.87715e-10 -3.71708e-10 -7.47731 -2.96731 -3.71708e-10 -3.85104e-10 14.2973 16.9345 4.81167 6.47238 16.9345 20.876 6.47238 9.20502 4.81167 6.47238 -2.89659 -1.49107 6.47238 9.20502 -1.49107 0.438411 20.876 24.9871 9.20502 12.6393 24.9871 27.6673 12.6393 15.1866 9.20502 12.6393 0.438411 2.40547 12.6393 15.1866 2.40547 4.41757 -2.89659 -1.49107 -2.96731 -0.313233 -1.49107 0.438411 -0.313233 1.24092 -2.96731 -0.313233 -3.85104e-10 -4.1685e-10 -0.313233 1.24092 -4.1685e-10 -4.45202e-10 0.438411 2.40547 1.24092 1.52482 2.40547 4.41757 1.52482 -0.732701 1.24092 1.52482 -4.45202e-10 -4.75228e-10 1.52482 -0.732701 -4.75228e-10 -5.48794e-10 27.6673 29.4379 15.1866 17.3911 29.4379 30.9168 17.3911 19.9991 15.1866 17.3911 4.41757 7.22649 17.3911 19.9991 7.22649 10.7488 30.9168 32.3924 19.9991 22.6162 32.3924 33.7567 22.6162 24.6608 19.9991 22.6162 10.7488 13.9248 22.6162 24.6608 13.9248 16.3333 4.41757 7.22649 -0.732701 -2.20622 7.22649 10.7488 -2.20622 2.3853 -0.732701 -2.20622 -5.48794e-10 -7.17929e-10 -2.20622 2.3853 -7.17929e-10 -4.37899e-10 10.7488 13.9248 2.3853 5.84291 13.9248 16.3333 5.84291 8.14874 2.3853 5.84291 -4.37899e-10 -4.07727e-10 5.84291 8.14874 -4.07727e-10 -3.98928e-10 33.7567 35.0581 24.6608 26.5607 35.0581 36.9021 26.5607 28.9165 24.6608 26.5607 16.3333 18.4522 26.5607 28.9165 18.4522 20.6701 36.9021 38.3398 28.9165 32.3445 38.3398 41.6027 32.3445 34.6158 28.9165 32.3445 20.6701 22.8276 32.3445 34.6158 22.8276 23.9274 16.3333 18.4522 8.14874 9.66637 18.4522 20.6701 9.66637 10.8379 8.14874 9.66637 -3.98928e-10 -3.92059e-10 9.66637 10.8379 -3.92059e-10 -3.86175e-10 20.6701 22.8276 10.8379 12.0148 22.8276 23.9274 12.0148 12.4463 10.8379 12.0148 -3.86175e-10 -3.82946e-10 12.0148 12.4463 -3.82946e-10 -3.81097e-10 0 -5.39782e-11 0 5.18632 -5.39782e-11 -3.87715e-10 5.18632 9.26821 0 5.18632 0 2.36014 5.18632 9.26821 2.36014 4.01555 -3.87715e-10 -3.71708e-10 9.26821 7.47731 -3.71708e-10 -3.85104e-10 7.47731 2.96731 9.26821 7.47731 4.01555 3.9456 7.47731 2.96731 3.9456 2.89659 0 2.36014 0 -0.477684 2.36014 4.01555 -0.477684 -1.70523 0 -0.477684 0 -4.38786 -0.477684 -1.70523 -4.38786 -8.45262 4.01555 3.9456 -1.70523 -3.28579 3.9456 2.89659 -3.28579 -4.81167 -1.70523 -3.28579 -8.45262 -11.7888 -3.28579 -4.81167 -11.7888 -14.2973 -3.85104e-10 -4.1685e-10 2.96731 0.313233 -4.1685e-10 -4.45202e-10 0.313233 -1.24092 2.96731 0.313233 2.89659 1.49107 0.313233 -1.24092 1.49107 -0.438411 -4.45202e-10 -4.75228e-10 -1.24092 -1.52482 -4.75228e-10 -5.48794e-10 -1.52482 0.732701 -1.24092 -1.52482 -0.438411 -2.40547 -1.52482 0.732701 -2.40547 -4.41757 2.89659 1.49107 -4.81167 -6.47238 1.49107 -0.438411 -6.47238 -9.20502 -4.81167 -6.47238 -14.2973 -16.9345 -6.47238 -9.20502 -16.9345 -20.876 -0.438411 -2.40547 -9.20502 -12.6393 -2.40547 -4.41757 -12.6393 -15.1866 -9.20502 -12.6393 -20.876 -24.9871 -12.6393 -15.1866 -24.9871 -27.6673 -5.48794e-10 -7.17929e-10 0.732701 2.20622 -7.17929e-10 -4.37899e-10 2.20622 -2.3853 0.732701 2.20622 -4.41757 -7.22649 2.20622 -2.3853 -7.22649 -10.7488 -4.37899e-10 -4.07727e-10 -2.3853 -5.84291 -4.07727e-10 -3.98928e-10 -5.84291 -8.14874 -2.3853 -5.84291 -10.7488 -13.9248 -5.84291 -8.14874 -13.9248 -16.3333 -4.41757 -7.22649 -15.1866 -17.3911 -7.22649 -10.7488 -17.3911 -19.9991 -15.1866 -17.3911 -27.6673 -29.4379 -17.3911 -19.9991 -29.4379 -30.9168 -10.7488 -13.9248 -19.9991 -22.6162 -13.9248 -16.3333 -22.6162 -24.6608 -19.9991 -22.6162 -30.9168 -32.3924 -22.6162 -24.6608 -32.3924 -33.7567 -3.98928e-10 -3.92059e-10 -8.14874 -9.66637 -3.92059e-10 -3.86175e-10 -9.66637 -10.8379 -8.14874 -9.66637 -16.3333 -18.4522 -9.66637 -10.8379 -18.4522 -20.6701 -3.86175e-10 -3.82946e-10 -10.8379 -12.0148 -3.82946e-10 -3.81097e-10 -12.0148 -12.4463 -10.8379 -12.0148 -20.6701 -22.8276 -12.0148 -12.4463 -22.8276 -23.9274 -16.3333 -18.4522 -24.6608 -26.5607 -18.4522 -20.6701 -26.5607 -28.9165 -24.6608 -26.5607 -33.7567 -35.0581 -26.5607 -28.9165 -35.0581 -36.9021 -20.6701 -22.8276 -28.9165 -32.3445 -22.8276 -23.9274 -32.3445 -34.6158 -28.9165 -32.3445 -36.9021 -38.3398 -32.3445 -34.6158 -38.3398 -41.6027 
SCALARS y_displacement double 1
LOOKUP_TABLE default
0 3.40855 0 2.45048 3.40855 9.69265 2.45048 8.90587 0 2.45048 0 2.66352 2.45048 8.90587 2.66352 8.74199 9.69265 18.2537 8.90587 17.6605 18.2537 27.7355 17.6605 27.2399 8.90587 17.6605 8.74199 17.7651 17.6605 27.2399 17.7651 27.5891 0 2.66352 0 3.77591 2.66352 8.74199 3.77591 8.9974 0 3.77591 0 5.41905 3.77591 8.9974 5.41905 9.07373 8.74199 17.7651 8.9974 19.3415 17.7651 27.5891 19.3415 30.6565 8.9974 19.3415 9.07373 26.9019 19.3415 30.6565 26.9019 32.6371 27.7355 37.9097 27.2399 37.0858 37.9097 49.2703 37.0858 47.9654 27.2399 37.0858 27.5891 36.7823 37.0858 47.9654 36.7823 46.0748 49.2703 61.8989 47.9654 60.8031 61.8989 75.176 60.8031 74.4615 47.9654 60.8031 46.0748 58.6991 60.8031 74.4615 58.6991 73.2031 27.5891 36.7823 30.6565 37.7909 36.7823 46.0748 37.7909 44.0941 30.6565 37.7909 32.6371 38.035 37.7909 44.0941 38.035 43.8025 46.0748 58.6991 44.0941 52.5519 58.6991 73.2031 52.5519 68.3931 44.0941 52.5519 43.8025 51.3653 52.5519 68.3931 51.3653 61.7128 75.176 88.6913 74.4615 88.188 88.6913 102.038 88.188 101.717 74.4615 88.188 73.2031 87.5124 88.188 101.717 87.5124 101.437 102.038 114.492 101.717 114.176 114.492 125.567 114.176 125.207 101.717 114.176 101.437 113.851 114.176 125.207 113.851 124.859 73.2031 87.5124 68.3931 86.9396 87.5124 101.437 86.9396 101.228 68.3931 86.9396 61.7128 83.5373 86.9396 101.228 83.5373 102.446 101.437 113.851 101.228 113.621 113.851 124.859 113.621 124.557 101.228 113.621 102.446 113.996 113.621 124.557 113.996 124.497 125.567 136.043 125.207 135.753 136.043 147.099 135.753 146.889 125.207 135.753 124.859 135.456 135.753 146.889 135.456 146.778 147.099 158.905 146.889 159.555 158.905 170.784 159.555 172.065 146.889 159.555 146.778 159.553 159.555 172.065 159.553 172.412 124.859 135.456 124.557 135.205 135.456 146.778 135.205 146.591 124.557 135.205 124.497 135.109 135.205 146.591 135.109 146.556 146.778 159.553 146.591 159.546 159.553 172.412 159.546 173.143 146.591 159.546 146.556 159.274 159.546 173.143 159.274 174.976 0 5.41905 0 3.77591 5.41905 9.07373 3.77591 8.9974 0 3.77591 0 2.66352 3.77591 8.9974 2.66352 8.74199 9.07373 26.9019 8.9974 19.3415 26.9019 32.6371 19.3415 30.6565 8.9974 19.3415 8.74199 17.7651 19.3415 30.6565 17.7651 27.5891 0 2.66352 0 2.45048 2.66352 8.74199 2.45048 8.90587 0 2.45048 0 3.40855 2.45048 8.90587 3.40855 9.69265 8.74199 17.7651 8.90587 17.6605 17.7651 27.5891 17.6605 27.2399 8.90587 17.6605 9.69265 18.2537 17.6605 27.2399 18.2537 27.7355 32.6371 38.035 30.6565 37.7909 38.035 43.8025 37.7909 44.0941 30.6565 37.7909 27.5891 36.7823 37.7909 44.0941 36.7823 46.0748 43.8025 51.3653 44.0941 52.5519 51.3653 61.7128 52.5519 68.3931 44.0941 52.5519 46.0748 58.6991 52.5519 68.3931 58.6991 73.2031 27.5891 36.7823 27.2399 37.0858 36.7823 46.0748 37.0858 47.9654 27.2399 37.0858 27.7355 37.9097 37.0858 47.9654 37.9097 49.2703 46.0748 58.6991 47.9654 60.8031 58.6991 73.2031 60.8031 74.4615 47.9654 60.8031 49.2703 61.8989 60.8031 74.4615 61.8989 75.176 61.7128 83.5373 68.3931 86.9396 83.5373 102.446 86.9396 101.228 68.3931 86.9396 73.2031 87.5124 86.9396 101.228 87.5124 101.437 102.446 113.996 101.228 113.621 113.996 124.497 113.621 124.557 101.228 113.621 101.437 113.851 113.621 124.557 113.851 124.859 73.2031 87.5124 74.4615 88.188 87.5124 101.437 88.188 101.717 74.4615 88.188 75.176 88.6913 88.188 101.717 88.6913 102.038 101.437 113.851 101.717 114.176 113.851 124.859 114.176 125.207 101.717 114.176 102.038 114.492 114.176 125.207 114.492 125.567 124.497 135.109 124.557 135.205 135.109 146.556 135.205 146.591 124.557 135.205 124.859 135.456 135.205 146.591 135.456 146.778 146.556 159.274 146.591 159.546 159.274 174.976 159.546 173.143 146.591 159.546 146.778 159.553 159.546 173.143 159.553 172.412 124.859 135.456 125.207 135.753 135.456 146.778 135.753 146.889 125.207 135.753 125.567 136.043 135.753 146.889 136.043 147.099 146.778 159.553 146.889 159.555 159.553 172.412 159.555 172.065 146.889 159.555 147.099 158.905 159.555 172.065 158.905 170.784 
