# vtk DataFile Version 3.0
#This file was generated by the deal.II library on 2015/9/2 at 7:53:11
ASCII
DATASET UNSTRUCTURED_GRID

POINTS 6584 double
0 0 0
0.05 0 0
0 0.05 0
0.05 0.05 0
0.05 0 0
0.1 0 0
0.05 0.05 0
0.1 0.05 0
0.1 0 0
0.15 0 0
0.1 0.05 0
0.15 0.05 0
0.15 0 0
0.2 0 0
0.15 0.05 0
0.2 0.05 0
0.2 0 0
0.25 0 0
0.2 0.05 0
0.25 0.05 0
0.25 0 0
0.3 0 0
0.25 0.05 0
0.3 0.05 0
0.3 0 0
0.35 0 0
0.3 0.05 0
0.35 0.05 0
0.35 0 0
0.4 0 0
0.35 0.05 0
0.4 0.05 0
0.4 0 0
0.45 0 0
0.4 0.05 0
0.45 0.05 0
0.45 0 0
0.5 0 0
0.45 0.05 0
0.5 0.05 0
0.5 0 0
0.55 0 0
0.5 0.05 0
0.55 0.05 0
0.55 0 0
0.6 0 0
0.55 0.05 0
0.6 0.05 0
0.6 0 0
0.65 0 0
0.6 0.05 0
0.65 0.05 0
0.65 0 0
0.7 0 0
0.65 0.05 0
0.7 0.05 0
0.7 0 0
0.75 0 0
0.7 0.05 0
0.75 0.05 0
0.75 0 0
0.8 0 0
0.75 0.05 0
0.8 0.05 0
0.8 0 0
0.85 0 0
0.8 0.05 0
0.85 0.05 0
0.85 0 0
0.9 0 0
0.85 0.05 0
0.9 0.05 0
0.9 0 0
0.95 0 0
0.9 0.05 0
0.95 0.05 0
0.95 0 0
1 0 0
0.95 0.05 0
1 0.05 0
1 0 0
1.05 0 0
1 0.05 0
1.05 0.05 0
1.05 0 0
1.1 0 0
1.05 0.05 0
1.1 0.05 0
1.1 0 0
1.15 0 0
1.1 0.05 0
1.15 0.05 0
1.15 0 0
1.2 0 0
1.15 0.05 0
1.2 0.05 0
1.2 0 0
1.25 0 0
1.2 0.05 0
1.25 0.05 0
1.25 0 0
1.3 0 0
1.25 0.05 0
1.3 0.05 0
1.4 0 0
1.45 0 0
1.4 0.05 0
1.45 0.05 0
1.45 0 0
1.5 0 0
1.45 0.05 0
1.5 0.05 0
1.5 0 0
1.55 0 0
1.5 0.05 0
1.55 0.05 0
1.55 0 0
1.6 0 0
1.55 0.05 0
1.6 0.05 0
1.6 0 0
1.65 0 0
1.6 0.05 0
1.65 0.05 0
1.65 0 0
1.7 0 0
1.65 0.05 0
1.7 0.05 0
1.7 0 0
1.75 0 0
1.7 0.05 0
1.75 0.05 0
1.75 0 0
1.8 0 0
1.75 0.05 0
1.8 0.05 0
1.8 0 0
1.85 0 0
1.8 0.05 0
1.85 0.05 0
1.85 0 0
1.9 0 0
1.85 0.05 0
1.9 0.05 0
1.9 0 0
1.95 0 0
1.9 0.05 0
1.95 0.05 0
1.95 0 0
2 0 0
1.95 0.05 0
2 0.05 0
0 0.05 0
0.05 0.05 0
0 0.1 0
0.05 0.1 0
0.05 0.05 0
0.1 0.05 0
0.05 0.1 0
0.1 0.1 0
0.1 0.05 0
0.15 0.05 0
0.1 0.1 0
0.15 0.1 0
0.15 0.05 0
0.2 0.05 0
0.15 0.1 0
0.2 0.1 0
0.2 0.05 0
0.25 0.05 0
0.2 0.1 0
0.25 0.1 0
0.25 0.05 0
0.3 0.05 0
0.25 0.1 0
0.3 0.1 0
0.3 0.05 0
0.35 0.05 0
0.3 0.1 0
0.35 0.1 0
0.35 0.05 0
0.4 0.05 0
0.35 0.1 0
0.4 0.1 0
0.4 0.05 0
0.45 0.05 0
0.4 0.1 0
0.45 0.1 0
1.1 0.05 0
1.15 0.05 0
1.1 0.1 0
1.15 0.1 0
1.15 0.05 0
1.2 0.05 0
1.15 0.1 0
1.2 0.1 0
1.2 0.05 0
1.25 0.05 0
1.2 0.1 0
1.25 0.1 0
1.25 0.05 0
1.3 0.05 0
1.25 0.1 0
1.3 0.1 0
1.3 0.05 0
1.35 0.05 0
1.3 0.1 0
1.35 0.1 0
1.5 0.05 0
1.55 0.05 0
1.5 0.1 0
1.55 0.1 0
1.55 0.05 0
1.6 0.05 0
1.55 0.1 0
1.6 0.1 0
1.6 0.05 0
1.65 0.05 0
1.6 0.1 0
1.65 0.1 0
1.65 0.05 0
1.7 0.05 0
1.65 0.1 0
1.7 0.1 0
1.7 0.05 0
1.75 0.05 0
1.7 0.1 0
1.75 0.1 0
1.75 0.05 0
1.8 0.05 0
1.75 0.1 0
1.8 0.1 0
1.8 0.05 0
1.85 0.05 0
1.8 0.1 0
1.85 0.1 0
1.85 0.05 0
1.9 0.05 0
1.85 0.1 0
1.9 0.1 0
1.9 0.05 0
1.95 0.05 0
1.9 0.1 0
1.95 0.1 0
1.95 0.05 0
2 0.05 0
1.95 0.1 0
2 0.1 0
0.1 0.1 0
0.15 0.1 0
0.1 0.15 0
0.15 0.15 0
0.15 0.1 0
0.2 0.1 0
0.15 0.15 0
0.2 0.15 0
0.2 0.1 0
0.25 0.1 0
0.2 0.15 0
0.25 0.15 0
0.25 0.1 0
0.3 0.1 0
0.25 0.15 0
0.3 0.15 0
0.3 0.1 0
0.35 0.1 0
0.3 0.15 0
0.35 0.15 0
0.35 0.1 0
0.4 0.1 0
0.35 0.15 0
0.4 0.15 0
1.15 0.1 0
1.2 0.1 0
1.15 0.15 0
1.2 0.15 0
1.2 0.1 0
1.25 0.1 0
1.2 0.15 0
1.25 0.15 0
1.3 0.1 0
1.35 0.1 0
1.3 0.15 0
1.35 0.15 0
1.35 0.1 0
1.4 0.1 0
1.35 0.15 0
1.4 0.15 0
1.4 0.1 0
1.45 0.1 0
1.4 0.15 0
1.45 0.15 0
1.6 0.1 0
1.65 0.1 0
1.6 0.15 0
1.65 0.15 0
1.65 0.1 0
1.7 0.1 0
1.65 0.15 0
1.7 0.15 0
1.7 0.1 0
1.75 0.1 0
1.7 0.15 0
1.75 0.15 0
1.75 0.1 0
1.8 0.1 0
1.75 0.15 0
1.8 0.15 0
1.8 0.1 0
1.85 0.1 0
1.8 0.15 0
1.85 0.15 0
1.85 0.1 0
1.9 0.1 0
1.85 0.15 0
1.9 0.15 0
1.9 0.1 0
1.95 0.1 0
1.9 0.15 0
1.95 0.15 0
1.95 0.1 0
2 0.1 0
1.95 0.15 0
2 0.15 0
0.2 0.15 0
0.25 0.15 0
0.2 0.2 0
0.25 0.2 0
0.25 0.15 0
0.3 0.15 0
0.25 0.2 0
0.3 0.2 0
0.3 0.15 0
0.35 0.15 0
0.3 0.2 0
0.35 0.2 0
0.35 0.15 0
0.4 0.15 0
0.35 0.2 0
0.4 0.2 0
0.4 0.15 0
0.45 0.15 0
0.4 0.2 0
0.45 0.2 0
0.6 0.15 0
0.65 0.15 0
0.6 0.2 0
0.65 0.2 0
0.65 0.15 0
0.7 0.15 0
0.65 0.2 0
0.7 0.2 0
0.7 0.15 0
0.75 0.15 0
0.7 0.2 0
0.75 0.2 0
0.75 0.15 0
0.8 0.15 0
0.75 0.2 0
0.8 0.2 0
0.8 0.15 0
0.85 0.15 0
0.8 0.2 0
0.85 0.2 0
0.85 0.15 0
0.9 0.15 0
0.85 0.2 0
0.9 0.2 0
0.9 0.15 0
0.95 0.15 0
0.9 0.2 0
0.95 0.2 0
0.95 0.15 0
1 0.15 0
0.95 0.2 0
1 0.2 0
1 0.15 0
1.05 0.15 0
1 0.2 0
1.05 0.2 0
1.15 0.15 0
1.2 0.15 0
1.15 0.2 0
1.2 0.2 0
1.4 0.15 0
1.45 0.15 0
1.4 0.2 0
1.45 0.2 0
1.45 0.15 0
1.5 0.15 0
1.45 0.2 0
1.5 0.2 0
1.65 0.15 0
1.7 0.15 0
1.65 0.2 0
1.7 0.2 0
1.7 0.15 0
1.75 0.15 0
1.7 0.2 0
1.75 0.2 0
1.75 0.15 0
1.8 0.15 0
1.75 0.2 0
1.8 0.2 0
1.8 0.15 0
1.85 0.15 0
1.8 0.2 0
1.85 0.2 0
1.85 0.15 0
1.9 0.15 0
1.85 0.2 0
1.9 0.2 0
1.9 0.15 0
1.95 0.15 0
1.9 0.2 0
1.95 0.2 0
1.95 0.15 0
2 0.15 0
1.95 0.2 0
2 0.2 0
0 0.2 0
0.05 0.2 0
0 0.25 0
0.05 0.25 0
0.05 0.2 0
0.1 0.2 0
0.05 0.25 0
0.1 0.25 0
0.3 0.2 0
0.35 0.2 0
0.3 0.25 0
0.35 0.25 0
0.35 0.2 0
0.4 0.2 0
0.35 0.25 0
0.4 0.25 0
0.4 0.2 0
0.45 0.2 0
0.4 0.25 0
0.45 0.25 0
0.45 0.2 0
0.5 0.2 0
0.45 0.25 0
0.5 0.25 0
0.7 0.2 0
0.75 0.2 0
0.7 0.25 0
0.75 0.25 0
0.75 0.2 0
0.8 0.2 0
0.75 0.25 0
0.8 0.25 0
0.8 0.2 0
0.85 0.2 0
0.8 0.25 0
0.85 0.25 0
0.85 0.2 0
0.9 0.2 0
0.85 0.25 0
0.9 0.25 0
0.9 0.2 0
0.95 0.2 0
0.9 0.25 0
0.95 0.25 0
0.95 0.2 0
1 0.2 0
0.95 0.25 0
1 0.25 0
1 0.2 0
1.05 0.2 0
1 0.25 0
1.05 0.25 0
1.1 0.2 0
1.15 0.2 0
1.1 0.25 0
1.15 0.25 0
1.25 0.2 0
1.3 0.2 0
1.25 0.25 0
1.3 0.25 0
1.45 0.2 0
1.5 0.2 0
1.45 0.25 0
1.5 0.25 0
1.5 0.2 0
1.55 0.2 0
1.5 0.25 0
1.55 0.25 0
1.55 0.2 0
1.6 0.2 0
1.55 0.25 0
1.6 0.25 0
1.75 0.2 0
1.8 0.2 0
1.75 0.25 0
1.8 0.25 0
1.8 0.2 0
1.85 0.2 0
1.8 0.25 0
1.85 0.25 0
1.85 0.2 0
1.9 0.2 0
1.85 0.25 0
1.9 0.25 0
1.9 0.2 0
1.95 0.2 0
1.9 0.25 0
1.95 0.25 0
1.95 0.2 0
2 0.2 0
1.95 0.25 0
2 0.25 0
0 0.25 0
0.05 0.25 0
0 0.3 0
0.05 0.3 0
0.05 0.25 0
0.1 0.25 0
0.05 0.3 0
0.1 0.3 0
0.1 0.25 0
0.15 0.25 0
0.1 0.3 0
0.15 0.3 0
0.15 0.25 0
0.2 0.25 0
0.15 0.3 0
0.2 0.3 0
0.4 0.25 0
0.45 0.25 0
0.4 0.3 0
0.45 0.3 0
0.45 0.25 0
0.5 0.25 0
0.45 0.3 0
0.5 0.3 0
0.5 0.25 0
0.55 0.25 0
0.5 0.3 0
0.55 0.3 0
0.55 0.25 0
0.6 0.25 0
0.55 0.3 0
0.6 0.3 0
0.85 0.25 0
0.9 0.25 0
0.85 0.3 0
0.9 0.3 0
0.9 0.25 0
0.95 0.25 0
0.9 0.3 0
0.95 0.3 0
0.95 0.25 0
1 0.25 0
0.95 0.3 0
1 0.3 0
1.2 0.25 0
1.25 0.25 0
1.2 0.3 0
1.25 0.3 0
1.25 0.25 0
1.3 0.25 0
1.25 0.3 0
1.3 0.3 0
1.3 0.25 0
1.35 0.25 0
1.3 0.3 0
1.35 0.3 0
1.35 0.25 0
1.4 0.25 0
1.35 0.3 0
1.4 0.3 0
1.55 0.25 0
1.6 0.25 0
1.55 0.3 0
1.6 0.3 0
1.6 0.25 0
1.65 0.25 0
1.6 0.3 0
1.65 0.3 0
1.65 0.25 0
1.7 0.25 0
1.65 0.3 0
1.7 0.3 0
1.85 0.25 0
1.9 0.25 0
1.85 0.3 0
1.9 0.3 0
1.9 0.25 0
1.95 0.25 0
1.9 0.3 0
1.95 0.3 0
1.95 0.25 0
2 0.25 0
1.95 0.3 0
2 0.3 0
0 0.3 0
0.05 0.3 0
0 0.35 0
0.05 0.35 0
0.05 0.3 0
0.1 0.3 0
0.05 0.35 0
0.1 0.35 0
0.1 0.3 0
0.15 0.3 0
0.1 0.35 0
0.15 0.35 0
0.15 0.3 0
0.2 0.3 0
0.15 0.35 0
0.2 0.35 0
0.2 0.3 0
0.25 0.3 0
0.2 0.35 0
0.25 0.35 0
0.25 0.3 0
0.3 0.3 0
0.25 0.35 0
0.3 0.35 0
0.5 0.3 0
0.55 0.3 0
0.5 0.35 0
0.55 0.35 0
0.55 0.3 0
0.6 0.3 0
0.55 0.35 0
0.6 0.35 0
0.6 0.3 0
0.65 0.3 0
0.6 0.35 0
0.65 0.35 0
0.65 0.3 0
0.7 0.3 0
0.65 0.35 0
0.7 0.35 0
0.95 0.3 0
1 0.3 0
0.95 0.35 0
1 0.35 0
1.05 0.3 0
1.1 0.3 0
1.05 0.35 0
1.1 0.35 0
1.2 0.3 0
1.25 0.3 0
1.2 0.35 0
1.25 0.35 0
1.25 0.3 0
1.3 0.3 0
1.25 0.35 0
1.3 0.35 0
1.3 0.3 0
1.35 0.3 0
1.3 0.35 0
1.35 0.35 0
1.35 0.3 0
1.4 0.3 0
1.35 0.35 0
1.4 0.35 0
1.4 0.3 0
1.45 0.3 0
1.4 0.35 0
1.45 0.35 0
1.45 0.3 0
1.5 0.3 0
1.45 0.35 0
1.5 0.35 0
1.65 0.3 0
1.7 0.3 0
1.65 0.35 0
1.7 0.35 0
1.7 0.3 0
1.75 0.3 0
1.7 0.35 0
1.75 0.35 0
1.95 0.3 0
2 0.3 0
1.95 0.35 0
2 0.35 0
0 0.35 0
0.05 0.35 0
0 0.4 0
0.05 0.4 0
0.05 0.35 0
0.1 0.35 0
0.05 0.4 0
0.1 0.4 0
0.1 0.35 0
0.15 0.35 0
0.1 0.4 0
0.15 0.4 0
0.15 0.35 0
0.2 0.35 0
0.15 0.4 0
0.2 0.4 0
0.2 0.35 0
0.25 0.35 0
0.2 0.4 0
0.25 0.4 0
0.25 0.35 0
0.3 0.35 0
0.25 0.4 0
0.3 0.4 0
0.3 0.35 0
0.35 0.35 0
0.3 0.4 0
0.35 0.4 0
0.35 0.35 0
0.4 0.35 0
0.35 0.4 0
0.4 0.4 0
0.6 0.35 0
0.65 0.35 0
0.6 0.4 0
0.65 0.4 0
0.65 0.35 0
0.7 0.35 0
0.65 0.4 0
0.7 0.4 0
0.7 0.35 0
0.75 0.35 0
0.7 0.4 0
0.75 0.4 0
0.75 0.35 0
0.8 0.35 0
0.75 0.4 0
0.8 0.4 0
0.8 0.35 0
0.85 0.35 0
0.8 0.4 0
0.85 0.4 0
1.15 0.35 0
1.2 0.35 0
1.15 0.4 0
1.2 0.4 0
1.2 0.35 0
1.25 0.35 0
1.2 0.4 0
1.25 0.4 0
1.25 0.35 0
1.3 0.35 0
1.25 0.4 0
1.3 0.4 0
1.3 0.35 0
1.35 0.35 0
1.3 0.4 0
1.35 0.4 0
1.35 0.35 0
1.4 0.35 0
1.35 0.4 0
1.4 0.4 0
1.4 0.35 0
1.45 0.35 0
1.4 0.4 0
1.45 0.4 0
1.45 0.35 0
1.5 0.35 0
1.45 0.4 0
1.5 0.4 0
1.5 0.35 0
1.55 0.35 0
1.5 0.4 0
1.55 0.4 0
1.7 0.35 0
1.75 0.35 0
1.7 0.4 0
1.75 0.4 0
1.75 0.35 0
1.8 0.35 0
1.75 0.4 0
1.8 0.4 0
1.8 0.35 0
1.85 0.35 0
1.8 0.4 0
1.85 0.4 0
0 0.4 0
0.05 0.4 0
0 0.45 0
0.05 0.45 0
0.05 0.4 0
0.1 0.4 0
0.05 0.45 0
0.1 0.45 0
0.1 0.4 0
0.15 0.4 0
0.1 0.45 0
0.15 0.45 0
0.15 0.4 0
0.2 0.4 0
0.15 0.45 0
0.2 0.45 0
0.2 0.4 0
0.25 0.4 0
0.2 0.45 0
0.25 0.45 0
0.25 0.4 0
0.3 0.4 0
0.25 0.45 0
0.3 0.45 0
0.3 0.4 0
0.35 0.4 0
0.3 0.45 0
0.35 0.45 0
0.35 0.4 0
0.4 0.4 0
0.35 0.45 0
0.4 0.45 0
0.4 0.4 0
0.45 0.4 0
0.4 0.45 0
0.45 0.45 0
0.45 0.4 0
0.5 0.4 0
0.45 0.45 0
0.5 0.45 0
0.5 0.4 0
0.55 0.4 0
0.5 0.45 0
0.55 0.45 0
0.7 0.4 0
0.75 0.4 0
0.7 0.45 0
0.75 0.45 0
0.75 0.4 0
0.8 0.4 0
0.75 0.45 0
0.8 0.45 0
0.8 0.4 0
0.85 0.4 0
0.8 0.45 0
0.85 0.45 0
0.85 0.4 0
0.9 0.4 0
0.85 0.45 0
0.9 0.45 0
0.9 0.4 0
0.95 0.4 0
0.9 0.45 0
0.95 0.45 0
0.95 0.4 0
1 0.4 0
0.95 0.45 0
1 0.45 0
1 0.4 0
1.05 0.4 0
1 0.45 0
1.05 0.45 0
1.15 0.4 0
1.2 0.4 0
1.15 0.45 0
1.2 0.45 0
1.2 0.4 0
1.25 0.4 0
1.2 0.45 0
1.25 0.45 0
1.25 0.4 0
1.3 0.4 0
1.25 0.45 0
1.3 0.45 0
1.3 0.4 0
1.35 0.4 0
1.3 0.45 0
1.35 0.45 0
1.35 0.4 0
1.4 0.4 0
1.35 0.45 0
1.4 0.45 0
1.4 0.4 0
1.45 0.4 0
1.4 0.45 0
1.45 0.45 0
1.45 0.4 0
1.5 0.4 0
1.45 0.45 0
1.5 0.45 0
1.5 0.4 0
1.55 0.4 0
1.5 0.45 0
1.55 0.45 0
1.55 0.4 0
1.6 0.4 0
1.55 0.45 0
1.6 0.45 0
1.6 0.4 0
1.65 0.4 0
1.6 0.45 0
1.65 0.45 0
1.8 0.4 0
1.85 0.4 0
1.8 0.45 0
1.85 0.45 0
1.85 0.4 0
1.9 0.4 0
1.85 0.45 0
1.9 0.45 0
1.9 0.4 0
1.95 0.4 0
1.9 0.45 0
1.95 0.45 0
0 0.45 0
0.05 0.45 0
0 0.5 0
0.05 0.5 0
0.05 0.45 0
0.1 0.45 0
0.05 0.5 0
0.1 0.5 0
0.1 0.45 0
0.15 0.45 0
0.1 0.5 0
0.15 0.5 0
0.15 0.45 0
0.2 0.45 0
0.15 0.5 0
0.2 0.5 0
0.2 0.45 0
0.25 0.45 0
[...]
POINT_DATA 6584
SCALARS x_displacement double 1
LOOKUP_TABLE default
0 1.43224 0 0.815167 1.43224 2.51086 0.815167 1.67625 2.51086 3.40031 1.67625 2.4338 3.40031 4.15949 2.4338 3.11038 4.15949 4.829 3.11038 3.71723 4.829 5.44942 3.71723 4.26911 5.44942 6.07107 4.26911 4.78545 6.07107 6.72693 4.78545 5.30852 6.72693 7.38862 5.30852 5.88315 7.38862 8.0285 5.88315 6.46001 8.0285 8.63449 6.46001 7.06973 8.63449 9.23707 7.06973 7.68726 9.23707 9.84256 7.68726 8.30434 9.84256 10.4506 8.30434 8.92099 10.4506 11.0611 8.92099 9.53739 11.0611 11.674 9.53739 10.1535 11.674 12.2894 10.1535 10.7694 12.2894 12.9073 10.7694 11.385 12.9073 13.5275 11.385 12.0006 13.5275 14.1495 12.0006 12.6166 14.1495 14.7784 12.6166 13.2244 14.7784 15.4568 13.2244 13.7868 15.4568 16.1822 13.7868 14.3447 16.1822 16.8826 14.3447 14.83 16.8826 17.4098 14.83 15.2251 17.4098 17.6938 15.2251 15.538 18.5046 18.3245 16.1401 16.2471 18.3245 17.5465 16.2471 16.7577 17.5465 18.8066 16.7577 17.4012 18.8066 19.5684 17.4012 17.07 19.5684 20.0222 17.07 17.4874 20.0222 20.4416 17.4874 17.6593 20.4416 20.5883 17.6593 17.9235 20.5883 20.6376 17.9235 18.17 20.6376 20.6367 18.17 18.2977 20.6367 20.5922 18.2977 18.3771 20.5922 20.5526 18.3771 18.4079 20.5526 20.5395 18.4079 18.4164 0 0.815167 0 0.523788 0.815167 1.67625 0.523788 1.0807 1.67625 2.4338 1.0807 1.66963 2.4338 3.11038 1.66963 2.2212 3.11038 3.71723 2.2212 2.71895 3.71723 4.26911 2.71895 3.16664 4.26911 4.78545 3.16664 3.54971 4.78545 5.30852 3.54971 3.85463 5.30852 5.88315 3.85463 4.21531 13.7868 14.3447 12.3296 12.6647 14.3447 14.83 12.6647 12.9213 14.83 15.2251 12.9213 13.2076 15.2251 15.538 13.2076 13.4756 15.538 15.8337 13.4756 13.7563 16.7577 17.4012 14.5716 14.3849 17.4012 17.07 14.3849 15.5852 17.07 17.4874 15.5852 13.9216 17.4874 17.6593 13.9216 14.9421 17.6593 17.9235 14.9421 15.5819 17.9235 18.17 15.5819 15.8266 18.17 18.2977 15.8266 16.1038 18.2977 18.3771 16.1038 16.2774 18.3771 18.4079 16.2774 16.3387 18.4079 18.4164 16.3387 16.3516 1.0807 1.66963 0.605471 1.02309 1.66963 2.2212 1.02309 1.41411 2.2212 2.71895 1.41411 1.82564 2.71895 3.16664 1.82564 2.19658 3.16664 3.54971 2.19658 2.49722 3.54971 3.85463 2.49722 2.71789 12.6647 12.9213 10.9791 10.9818 12.9213 13.2076 10.9818 11.0277 13.4756 13.7563 11.359 11.6759 13.7563 14.0137 11.6759 11.9485 14.0137 14.3609 11.9485 12.2429 15.5852 13.9216 13.0843 13.6822 13.9216 14.9421 13.6822 13.6118 14.9421 15.5819 13.6118 12.8833 15.5819 15.8266 12.8833 13.7235 15.8266 16.1038 13.7235 14.1876 16.1038 16.2774 14.1876 14.3778 16.2774 16.3387 14.3778 14.4395 16.3387 16.3516 14.4395 14.4441 1.41411 1.82564 0.680025 1.04011 1.82564 2.19658 1.04011 1.33212 2.19658 2.49722 1.33212 1.63867 2.49722 2.71789 1.63867 1.93859 2.71789 2.94555 1.93859 2.22248 3.81449 4.65055 3.09082 2.82986 4.65055 5.54707 2.82986 3.89961 5.54707 6.44277 3.89961 4.515 6.44277 7.15163 4.515 5.28622 7.15163 7.74399 5.28622 6.18078 7.74399 8.44749 6.18078 7.22834 8.44749 9.22063 7.22834 7.94207 9.22063 9.77647 7.94207 9.44406 9.77647 11.8385 9.44406 9.24927 10.9791 10.9818 9.25108 9.18205 11.9485 12.2429 9.88098 10.1931 12.2429 12.5586 10.1931 10.4904 13.6822 13.6118 11.4184 11.5347 13.6118 12.8833 11.5347 11.9875 12.8833 13.7235 11.9875 12.4874 13.7235 14.1876 12.4874 12.5104 14.1876 14.3778 12.5104 12.6579 14.3778 14.4395 12.6579 12.7702 14.4395 14.4441 12.7702 12.7273 0 0.220341 0 -1.08102 0.220341 0.0870987 -1.08102 -0.659492 1.33212 1.63867 0.559352 0.897687 1.63867 1.93859 0.897687 1.19109 1.93859 2.22248 1.19109 1.53313 2.22248 2.52998 1.53313 1.87368 3.89961 4.515 3.13475 2.95663 4.515 5.28622 2.95663 3.91681 5.28622 6.18078 3.91681 4.42587 6.18078 7.22834 4.42587 5.48661 7.22834 7.94207 5.48661 8.43694 7.94207 9.44406 8.43694 7.47385 9.44406 9.24927 7.47385 7.50837 9.23778 9.25108 7.52926 7.50944 9.01379 9.28174 7.28476 6.71725 10.1931 10.4904 8.10465 8.42218 10.4904 10.7569 8.42218 8.69004 10.7569 11.0644 8.69004 8.98698 11.9875 12.4874 9.80596 9.66588 12.4874 12.5104 9.66588 10.6043 12.5104 12.6579 10.6043 11.4142 12.6579 12.7702 11.4142 11.278 12.7702 12.7273 11.278 11.0559 0 -1.08102 0 -0.302318 -1.08102 -0.659492 -0.302318 -0.835992 -0.659492 0.285792 -0.835992 -1.72919 0.285792 0.00196482 -1.72919 -0.832113 1.19109 1.53313 0.496018 0.855115 1.53313 1.87368 0.855115 1.15612 1.87368 2.16315 1.15612 1.50444 2.16315 2.51043 1.50444 1.85563 4.42587 5.48661 3.61491 3.29948 5.48661 8.43694 3.29948 5.91937 8.43694 7.47385 5.91937 5.88858 7.46086 7.28476 5.39553 5.95952 7.28476 6.71725 5.95952 5.80578 6.71725 7.99159 5.80578 5.22547 7.99159 7.86885 5.22547 5.67818 8.69004 8.98698 6.61467 6.92631 8.98698 9.25405 6.92631 7.19428 9.25405 9.57684 7.19428 7.49062 10.6043 11.4142 8.40361 8.1577 11.4142 11.278 8.1577 9.25101 11.278 11.0559 9.25101 10.2893 0 -0.302318 0 -0.25132 -0.302318 -0.835992 -0.25132 -0.556977 -0.835992 -1.72919 -0.556977 -0.759187 -1.72919 -0.832113 -0.759187 -1.14678 -0.832113 0.141952 -1.14678 -1.80151 0.141952 -0.121553 -1.80151 -0.945966 1.15612 1.50444 0.48404 0.842167 1.50444 1.85563 0.842167 1.13836 1.85563 2.16297 1.13836 1.47693 2.16297 2.52974 1.47693 1.83012 5.91937 5.88858 3.63062 4.21382 5.84988 5.8633 4.22184 4.21582 5.39553 5.95952 4.0969 4.28658 5.95952 5.80578 4.28658 4.22785 5.80578 5.22547 4.22785 4.48974 5.22547 5.67818 4.48974 4.72713 5.67818 6.11392 4.72713 4.05141 6.11392 6.24633 4.05141 3.98227 7.19428 7.49062 5.13483 5.44744 7.49062 7.80524 5.44744 5.74151 9.25101 10.2893 6.94241 6.61681 0 -0.25132 0 -0.149302 -0.25132 -0.556977 -0.149302 -0.314965 -0.556977 -0.759187 -0.314965 -0.537794 -0.759187 -1.14678 -0.537794 -0.770841 -1.14678 -1.80151 -0.770841 -0.868891 -1.80151 -0.945966 -0.868891 -1.12984 -0.945966 0.188944 -1.12984 -1.77491 0.188944 -0.105358 -1.77491 -0.81909 1.13836 1.47693 0.436353 0.798874 1.47693 1.83012 0.798874 1.05284 1.83012 2.1472 1.05284 1.3261 2.1472 2.47393 1.3261 1.61938 2.47393 2.84635 1.61938 1.9151 4.18732 4.0969 2.20485 2.65015 4.0969 4.28658 2.65015 2.80442 4.28658 4.22785 2.80442 2.89199 4.22785 4.48974 2.89199 2.9893 4.48974 4.72713 2.9893 3.05801 4.72713 4.05141 3.05801 3.33847 4.05141 3.98227 3.33847 3.80761 3.98227 4.60164 3.80761 2.09952 5.44744 5.74151 3.34652 3.6714 5.74151 6.01393 3.6714 3.91755 6.01393 6.34558 3.91755 4.19616 0 -0.149302 0 -0.0685234 -0.149302 -0.314965 -0.0685234 -0.15821 -0.314965 -0.537794 -0.15821 -0.262283 -0.537794 -0.770841 -0.262283 -0.359052 -0.770841 -0.868891 -0.359052 -0.485523 -0.868891 -1.12984 -0.485523 -0.630207 -1.12984 -1.77491 -0.630207 -0.686881 -1.77491 -0.81909 -0.686881 -1.09969 -0.81909 0.426871 -1.09969 -2.22395 0.426871 -0.0902846 -2.22395 -0.701158 -0.0902846 0.0537876 -0.701158 -0.883213 1.05284 1.3261 0.350199 0.583167 1.3261 1.61938 0.583167 0.776564 1.61938 1.9151 0.776564 0.934415 1.9151 2.14798 0.934415 1.06606 2.14798 2.40156 1.06606 1.13475 2.40156 2.61332 1.13475 1.13193 2.61332 2.62774 1.13193 1.12703 2.20485 2.65015 1.11865 1.45491 2.65015 2.80442 1.45491 1.36986 2.80442 2.89199 1.36986 1.43987 2.89199 2.9893 1.43987 1.49661 2.9893 3.05801 1.49661 1.57159 3.05801 3.33847 1.57159 1.55172 3.33847 3.80761 1.55172 1.40999 3.80761 2.09952 1.40999 1.35022 2.09952 3.28614 1.35022 0.377957 3.28614 3.12655 0.377957 0.943978 3.91755 4.19616 1.82797 2.05074 4.19616 4.4637 2.05074 2.25472 4.4637 4.73799 2.25472 2.4745 0 -0.0685234 0 1.40955e-12 -0.0685234 -0.15821 1.40955e-12 6.76361e-13 -0.15821 -0.262283 6.76361e-13 2.85352e-12 -0.262283 -0.359052 2.85352e-12 5.73664e-12 -0.359052 -0.485523 5.73664e-12 9.74611e-12 -0.485523 -0.630207 9.74611e-12 1.37721e-11 -0.630207 -0.686881 1.37721e-11 2.17518e-11 -0.686881 -1.09969 2.17518e-11 2.76287e-11 -1.09969 -2.22395 2.76287e-11 2.04472e-11 -2.22395 -0.701158 2.04472e-11 4.23634e-11 -0.701158 -0.883213 4.23634e-11 5.49911e-11 -0.883213 -0.0885928 5.49911e-11 -3.48334e-11 -0.0885928 0.0355691 -3.48334e-11 -3.79713e-11 0.583167 0.776564 -4.9698e-12 -3.01387e-12 0.776564 0.934415 -3.01387e-12 -1.90756e-12 0.934415 1.06606 -1.90756e-12 -1.31002e-12 1.06606 1.13475 -1.31002e-12 -1.27158e-12 1.13475 1.13193 -1.27158e-12 -1.56785e-12 1.08764 1.11865 -4.31887e-12 4.86948e-12 1.11865 1.45491 4.86948e-12 5.15969e-10 1.45491 1.36986 5.15969e-10 9.89182e-11 1.36986 1.43987 9.89182e-11 2.48359e-10 1.43987 1.49661 2.48359e-10 1.37688e-10 1.49661 1.57159 1.37688e-10 3.42526e-10 1.57159 1.55172 3.42526e-10 1.35403e-10 1.55172 1.40999 1.35403e-10 1.48748e-10 1.40999 1.35022 1.48748e-10 3.00013e-10 1.35022 0.377957 3.00013e-10 1.47349e-10 0.377957 0.943978 1.47349e-10 1.39672e-11 0.943978 1.43283 1.39672e-11 -4.01742e-12 1.43283 1.53102 -4.01742e-12 2.99878e-12 2.05074 2.25472 -2.58892e-12 -2.71245e-12 2.25472 2.4745 -2.71245e-12 -3.05694e-12 2.4745 2.48289 -3.05694e-12 -2.86074e-12 0 1.40955e-12 0 0.0685234 1.40955e-12 6.76361e-13 0.0685234 0.15821 6.76361e-13 2.85352e-12 0.15821 0.262283 2.85352e-12 5.73664e-12 0.262283 0.359052 5.73664e-12 9.74611e-12 0.359052 0.485523 9.74611e-12 1.37721e-11 0.485523 0.630207 1.37721e-11 2.17518e-11 0.630207 0.686881 2.17518e-11 2.76287e-11 0.686881 1.09969 2.76287e-11 2.04472e-11 1.09969 2.22395 2.04472e-11 4.23634e-11 2.22395 0.701158 4.23634e-11 5.49911e-11 0.701158 0.883213 5.49911e-11 -3.48334e-11 0.883213 0.0885928 -3.48334e-11 -3.79713e-11 0.0885928 -0.0355691 -4.9698e-12 -3.01387e-12 -0.583167 -0.776564 -3.01387e-12 -1.90756e-12 -0.776564 -0.934415 -1.90756e-12 -1.31002e-12 -0.934415 -1.06606 -1.31002e-12 -1.27158e-12 -1.06606 -1.13475 -1.27158e-12 -1.56785e-12 -1.13475 -1.13193 -4.31887e-12 4.86948e-12 -1.08764 -1.11865 4.86948e-12 5.15969e-10 -1.11865 -1.45491 5.15969e-10 9.89182e-11 -1.45491 -1.36986 9.89182e-11 2.48359e-10 -1.36986 -1.43987 2.48359e-10 1.37688e-10 -1.43987 -1.49661 1.37688e-10 3.42526e-10 -1.49661 -1.57159 3.42526e-10 1.35403e-10 -1.57159 -1.55172 1.35403e-10 1.48748e-10 -1.55172 -1.40999 1.48748e-10 3.00013e-10 -1.40999 -1.35022 3.00013e-10 1.47349e-10 -1.35022 -0.377957 1.47349e-10 1.39672e-11 -0.377957 -0.943978 1.39672e-11 -4.01742e-12 -0.943978 -1.43283 -4.01742e-12 2.99878e-12 -1.43283 -1.53102 -2.58892e-12 -2.71245e-12 -2.05074 -2.25472 -2.71245e-12 -3.05694e-12 -2.25472 -2.4745 -3.05694e-12 -2.86074e-12 -2.4745 -2.48289 0 0.0685234 0 0.149302 0.0685234 0.15821 0.149302 0.314965 0.15821 0.262283 0.314965 0.537794 0.262283 0.359052 0.537794 0.770841 0.359052 0.485523 0.770841 0.868891 0.485523 0.630207 0.868891 1.12984 0.630207 0.686881 1.12984 1.77491 0.686881 1.09969 1.77491 0.81909 1.09969 2.22395 0.81909 -0.426871 2.22395 0.701158 -0.426871 0.0902846 0.701158 0.883213 0.0902846 -0.0537876 -0.350199 -0.583167 -1.05284 -1.3261 -0.583167 -0.776564 -1.3261 -1.61938 -0.776564 -0.934415 -1.61938 -1.9151 -0.934415 -1.06606 -1.9151 -2.14798 -1.06606 -1.13475 -2.14798 -2.40156 -1.13475 -1.13193 -2.40156 -2.61332 -1.13193 -1.12703 -2.61332 -2.62774 -1.11865 -1.45491 -2.20485 -2.65015 -1.45491 -1.36986 -2.65015 -2.80442 -1.36986 -1.43987 -2.80442 -2.89199 -1.43987 -1.49661 -2.89199 -2.9893 -1.49661 -1.57159 -2.9893 -3.05801 -1.57159 -1.55172 -3.05801 -3.33847 -1.55172 -1.40999 -3.33847 -3.80761 -1.40999 -1.35022 -3.80761 -2.09952 -1.35022 -0.377957 -2.09952 -3.28614 -0.377957 -0.943978 -3.28614 -3.12655 -1.82797 -2.05074 -3.91755 -4.19616 -2.05074 -2.25472 -4.19616 -4.4637 -2.25472 -2.4745 -4.4637 -4.73799 0 0.149302 0 0.25132 0.149302 0.314965 0.25132 0.556977 0.314965 0.537794 0.556977 0.759187 0.537794 0.770841 0.759187 1.14678 0.770841 0.868891 1.14678 1.80151 0.868891 1.12984 1.80151 0.945966 1.12984 1.77491 0.945966 -0.188944 1.77491 0.81909 -0.188944 0.105358 -0.436353 -0.798874 -1.13836 -1.47693 -0.798874 -1.05284 -1.47693 -1.83012 -1.05284 -1.3261 -1.83012 -2.1472 -1.3261 -1.61938 -2.1472 -2.47393 -1.61938 -1.9151 -2.47393 -2.84635 -2.20485 -2.65015 -4.18732 -4.0969 -2.65015 -2.80442 -4.0969 -4.28658 -2.80442 -2.89199 -4.28658 -4.22785 -2.89199 -2.9893 -4.22785 -4.48974 -2.9893 -3.05801 -4.48974 -4.72713 -3.05801 -3.33847 -4.72713 -4.05141 -3.33847 -3.80761 -4.05141 -3.98227 -3.80761 -2.09952 -3.98227 -4.60164 -3.34652 -3.6714 -5.44744 -5.74151 -3.6714 -3.91755 -5.74151 -6.01393 -3.91755 -4.19616 -6.01393 -6.34558 0 0.25132 0 0.302318 0.25132 0.556977 0.302318 0.835992 0.556977 0.759187 0.835992 1.72919 0.759187 1.14678 1.72919 0.832113 1.14678 1.80151 0.832113 -0.141952 1.80151 0.945966 -0.141952 0.121553 -0.48404 -0.842167 -1.15612 -1.50444 -0.842167 -1.13836 -1.50444 -1.85563 -1.13836 -1.47693 -1.85563 -2.16297 -1.47693 -1.83012 -2.16297 -2.52974 -3.63062 -4.21382 -5.91937 -5.88858 -4.22184 -4.21582 -5.84988 -5.8633 -4.0969 -4.28658 -5.39553 -5.95952 -4.28658 -4.22785 -5.95952 -5.80578 -4.22785 -4.48974 -5.80578 -5.22547 -4.48974 -4.72713 -5.22547 -5.67818 -4.72713 -4.05141 -5.67818 -6.11392 -4.05141 -3.98227 -6.11392 -6.24633 -5.13483 -5.44744 -7.19428 -7.49062 -5.44744 -5.74151 -7.49062 -7.80524 -6.94241 -6.61681 -9.25101 -10.2893 0 0.302318 0 1.08102 0.302318 0.835992 1.08102 0.659492 0.835992 1.72919 0.659492 -0.285792 1.72919 0.832113 -0.285792 -0.00196482 -0.496018 -0.855115 -1.19109 -1.53313 -0.855115 -1.15612 -1.53313 -1.87368 -1.15612 -1.50444 -1.87368 -2.16315 -1.50444 -1.85563 -2.16315 -2.51043 -3.61491 -3.29948 -4.42587 -5.48661 -3.29948 -5.91937 -5.48661 -8.43694 -5.91937 -5.88858 -8.43694 -7.47385 -5.39553 -5.95952 -7.46086 -7.28476 -5.95952 -5.80578 -7.28476 -6.71725 -5.80578 -5.22547 -6.71725 -7.99159 -5.22547 -5.67818 -7.99159 -7.86885 -6.61467 -6.92631 -8.69004 -8.98698 -6.92631 -7.19428 -8.98698 -9.25405 -7.19428 -7.49062 -9.25405 -9.57684 -8.40361 -8.1577 -10.6043 -11.4142 -8.1577 -9.25101 -11.4142 -11.278 -9.25101 -10.2893 -11.278 -11.0559 0 1.08102 0 -0.220341 1.08102 0.659492 -0.220341 -0.0870987 -0.559352 -0.897687 -1.33212 -1.63867 -0.897687 -1.19109 -1.63867 -1.93859 -1.19109 -1.53313 -1.93859 -2.22248 -1.53313 -1.87368 -2.22248 -2.52998 -3.13475 -2.95663 -3.89961 -4.515 -2.95663 -3.91681 -4.515 -5.28622 -3.91681 -4.42587 -5.28622 -6.18078 -4.42587 -5.48661 -6.18078 -7.22834 -5.48661 -8.43694 -7.22834 -7.94207 -8.43694 -7.47385 -7.94207 -9.44406 -7.47385 -7.50837 -9.44406 -9.24927 -7.52926 -7.50944 -9.23778 -9.25108 -7.28476 -6.71725 -9.01379 -9.28174 -8.10465 -8.42218 -10.1931 -10.4904 -8.42218 -8.69004 -10.4904 -10.7569 -8.69004 -8.98698 -10.7569 -11.0644 -9.80596 -9.66588 -11.9875 -12.4874 -9.66588 -10.6043 -12.4874 -12.5104 -10.6043 -11.4142 -12.5104 -12.6579 -11.4142 -11.278 -12.6579 -12.7702 -11.278 -11.0559 -12.7702 -12.7273 -0.680025 -1.04011 -1.41411 -1.82564 -1.04011 -1.33212 -1.82564 -2.19658 -1.33212 -1.63867 -2.19658 -2.49722 -1.63867 -1.93859 -2.49722 -2.71789 -1.93859 -2.22248 -2.71789 -2.94555 -3.09082 -2.82986 -3.81449 -4.65055 -2.82986 -3.89961 -4.65055 -5.54707 -3.89961 -4.515 -5.54707 -6.44277 -4.515 -5.28622 -6.44277 -7.15163 -5.28622 -6.18078 -7.15163 -7.74399 -6.18078 -7.22834 -7.74399 -8.44749 -7.22834 -7.94207 -8.44749 -9.22063 -7.94207 -9.44406 -9.22063 -9.77647 -9.44406 -9.24927 -9.77647 -11.8385 -9.25108 -9.18205 -10.9791 -10.9818 -9.88098 -10.1931 -11.9485 -12.2429 -10.1931 -10.4904 -12.2429 -12.5586 -11.4184 -11.5347 -13.6822 -13.6118 -11.5347 -11.9875 -13.6118 -12.8833 -11.9875 -12.4874 -12.8833 -13.7235 -12.4874 -12.5104 -13.7235 -14.1876 -12.5104 -12.6579 -14.1876 -14.3778 -12.6579 -12.7702 -14.3778 -14.4395 -12.7702 -12.7273 -14.4395 -14.4441 -0.605471 -1.02309 -1.0807 -1.66963 -1.02309 -1.41411 -1.66963 -2.2212 -1.41411 -1.82564 -2.2212 -2.71895 -1.82564 -2.19658 -2.71895 -3.16664 -2.19658 -2.49722 -3.16664 -3.54971 -2.49722 -2.71789 -3.54971 -3.85463 -10.9791 -10.9818 -12.6647 -12.9213 -10.9818 -11.0277 -12.9213 -13.2076 -11.359 -11.6759 -13.4756 -13.7563 -11.6759 -11.9485 -13.7563 -14.0137 -11.9485 -12.2429 -14.0137 -14.3609 -13.0843 -13.6822 -15.5852 -13.9216 -13.6822 -13.6118 -13.9216 -14.9421 -13.6118 -12.8833 -14.9421 -15.5819 -12.8833 -13.7235 -15.5819 -15.8266 -13.7235 -14.1876 -15.8266 -16.1038 -14.1876 -14.3778 -16.1038 -16.2774 -14.3778 -14.4395 -16.2774 -16.3387 -14.4395 -14.4441 -16.3387 -16.3516 0 -0.523788 0 -0.815167 -0.523788 -1.0807 -0.815167 -1.67625 -1.0807 -1.66963 -1.67625 -2.4338 -1.66963 -2.2212 -2.4338 -3.11038 -2.2212 -2.71895 -3.11038 -3.71723 -2.71895 -3.16664 -3.71723 -4.26911 -3.16664 -3.54971 -4.26911 -4.78545 -3.54971 -3.85463 -4.78545 -5.30852 -3.85463 -4.21531 -5.30852 -5.88315 -12.3296 -12.6647 -13.7868 -14.3447 -12.6647 -12.9213 -14.3447 -14.83 -12.9213 -13.2076 -14.83 -15.2251 -13.2076 -13.4756 -15.2251 -15.538 -13.4756 -13.7563 -15.538 -15.8337 -14.5716 -14.3849 -16.7577 -17.4012 -14.3849 -15.5852 -17.4012 -17.07 -15.5852 -13.9216 -17.07 -17.4874 -13.9216 -14.9421 -17.4874 -17.6593 -14.9421 -15.5819 -17.6593 -17.9235 -15.5819 -15.8266 -17.9235 -18.17 -15.8266 -16.1038 -18.17 -18.2977 -16.1038 -16.2774 -18.2977 -18.3771 -16.2774 -16.3387 -18.3771 -18.4079 -16.3387 -16.3516 -18.4079 -18.4164 0 -0.815167 0 -1.43224 -0.815167 -1.67625 -1.43224 -2.51086 -1.67625 -2.4338 -2.51086 -3.40031 -2.4338 -3.11038 -3.40031 -4.15949 -3.11038 -3.71723 -4.15949 -4.829 -3.71723 -4.26911 -4.829 -5.44942 -4.26911 -4.78545 -5.44942 -6.07107 -4.78545 -5.30852 -6.07107 -6.72693 -5.30852 -5.88315 -6.72693 -7.38862 -5.88315 -6.46001 -7.38862 -8.0285 -6.46001 -7.06973 -8.0285 -8.63449 -7.06973 -7.68726 -8.63449 -9.23707 -7.68726 -8.30434 -9.23707 -9.84256 -8.30434 -8.92099 -9.84256 -10.4506 -8.92099 -9.53739 -10.4506 -11.0611 -9.53739 -10.1535 -11.0611 -11.674 -10.1535 -10.7694 -11.674 -12.2894 -10.7694 -11.385 -12.2894 -12.9073 -11.385 -12.0006 -12.9073 -13.5275 -12.0006 -12.6166 -13.5275 -14.1495 -12.6166 -13.2244 -14.1495 -14.7784 -13.2244 -13.7868 -14.7784 -15.4568 -13.7868 -14.3447 -15.4568 -16.1822 -14.3447 -14.83 -16.1822 -16.8826 -14.83 -15.2251 -16.8826 -17.4098 -15.2251 -15.538 -17.4098 -17.6938 -16.1401 -16.2471 -18.5046 -18.3245 -16.2471 -16.7577 -18.3245 -17.5465 -16.7577 -17.4012 -17.5465 -18.8066 -17.4012 -17.07 -18.8066 -19.5684 -17.07 -17.4874 -19.5684 -20.0222 -17.4874 -17.6593 -20.0222 -20.4416 -17.6593 -17.9235 -20.4416 -20.5883 -17.9235 -18.17 -20.5883 -20.6376 -18.17 -18.2977 -20.6376 -20.6367 -18.2977 -18.3771 -20.6367 -20.5922 -18.3771 -18.4079 -20.5922 -20.5526 -18.4079 -18.4164 -20.5526 -20.5395 17.6938 17.7787 16.6159 16.6951 17.7787 17.7969 16.6951 16.7402 16.6159 16.6951 15.538 15.6859 16.6951 16.7402 15.6859 15.8337 17.7969 17.6537 16.7402 16.9667 17.6537 18.5046 16.9667 17.3224 16.7402 16.9667 15.8337 16.0433 16.9667 17.3224 16.0433 16.1401 5.88315 6.17158 5.04923 5.35989 6.17158 6.46001 5.35989 5.6668 5.04923 5.35989 4.21531 4.50536 5.35989 5.6668 4.50536 4.85688 6.46001 6.76487 5.6668 5.97606 6.76487 7.06973 5.97606 6.28855 5.6668 5.97606 4.85688 5.18963 5.97606 6.28855 5.18963 5.50778 7.06973 7.37849 6.28855 6.60058 7.37849 7.68726 6.60058 6.91241 6.28855 6.60058 5.50778 5.82343 6.60058 6.91241 5.82343 6.13816 7.68726 7.9958 6.91241 7.22392 7.9958 8.30434 7.22392 7.53497 6.91241 7.22392 6.13816 6.45246 7.22392 7.53497 6.45246 6.76618 8.30434 8.61267 7.53497 7.84569 8.61267 8.92099 7.84569 8.15594 7.53497 7.84569 6.76618 7.07917 7.84569 8.15594 7.07917 7.39146 8.92099 9.22919 8.15594 8.46585 9.22919 9.53739 8.46585 8.7753 8.15594 8.46585 7.39146 7.70298 8.46585 8.7753 7.70298 8.01378 9.53739 9.84546 8.7753 9.0844 9.84546 10.1535 9.0844 9.39305 8.7753 9.0844 8.01378 8.32381 9.0844 9.39305 8.32381 8.63312 10.1535 10.4615 9.39305 9.70134 10.4615 10.7694 9.70134 10.0092 9.39305 9.70134 8.63312 8.94167 9.70134 10.0092 8.94167 9.2495 10.7694 11.0772 10.0092 10.3167 11.0772 11.385 10.3167 10.6237 10.0092 10.3167 9.2495 9.55658 10.3167 10.6237 9.55658 9.86294 11.385 11.6928 10.6237 10.9304 11.6928 12.0006 10.9304 11.2366 10.6237 10.9304 9.86294 10.1685 10.9304 11.2366 10.1685 10.4732 12.0006 12.3086 11.2366 11.5425 12.3086 12.6166 11.5425 11.8476 11.2366 11.5425 10.4732 10.7767 11.5425 11.8476 10.7767 11.0792 12.6166 12.9205 11.8476 12.1527 12.9205 13.2244 12.1527 12.454 11.8476 12.1527 11.0792 11.3815 12.1527 12.454 11.3815 11.6966 13.2244 13.5056 12.454 12.7532 13.5056 13.7868 12.7532 13.0582 12.454 12.7532 11.6966 12.0326 12.7532 13.0582 12.0326 12.3296