# vtk DataFile Version 3.0
#This file was generated by the deal.II library on 2016/2/10 at 17:07:09
ASCII
DATASET UNSTRUCTURED_GRID

POINTS 3200 double
0 0 0
0.05 0 0
0 0.05 0
0.05 0.05 0
0.05 0 0
0.1 0 0
0.05 0.05 0
0.1 0.05 0
0.1 0 0
0.15 0 0
0.1 0.05 0
0.15 0.05 0
0.15 0 0
0.2 0 0
0.15 0.05 0
0.2 0.05 0
0.2 0 0
0.25 0 0
0.2 0.05 0
0.25 0.05 0
0.25 0 0
0.3 0 0
0.25 0.05 0
0.3 0.05 0
0.3 0 0
0.35 0 0
0.3 0.05 0
0.35 0.05 0
0.35 0 0
0.4 0 0
0.35 0.05 0
0.4 0.05 0
0.4 0 0
0.45 0 0
0.4 0.05 0
0.45 0.05 0
0.45 0 0
0.5 0 0
0.45 0.05 0
0.5 0.05 0
0.5 0 0
0.55 0 0
0.5 0.05 0
0.55 0.05 0
0.55 0 0
0.6 0 0
0.55 0.05 0
0.6 0.05 0
0.6 0 0
0.65 0 0
0.6 0.05 0
0.65 0.05 0
0.65 0 0
0.7 0 0
0.65 0.05 0
0.7 0.05 0
0.7 0 0
0.75 0 0
0.7 0.05 0
0.75 0.05 0
0.75 0 0
0.8 0 0
0.75 0.05 0
0.8 0.05 0
0.8 0 0
0.85 0 0
0.8 0.05 0
0.85 0.05 0
0.85 0 0
0.9 0 0
0.85 0.05 0
0.9 0.05 0
0.9 0 0
0.95 0 0
0.9 0.05 0
0.95 0.05 0
0.95 0 0
1 0 0
0.95 0.05 0
1 0.05 0
1 0 0
1.05 0 0
1 0.05 0
1.05 0.05 0
1.05 0 0
1.1 0 0
1.05 0.05 0
1.1 0.05 0
1.1 0 0
1.15 0 0
1.1 0.05 0
1.15 0.05 0
1.15 0 0
1.2 0 0
1.15 0.05 0
1.2 0.05 0
1.2 0 0
1.25 0 0
1.2 0.05 0
1.25 0.05 0
1.25 0 0
1.3 0 0
1.25 0.05 0
1.3 0.05 0
1.3 0 0
1.35 0 0
1.3 0.05 0
1.35 0.05 0
1.35 0 0
1.4 0 0
1.35 0.05 0
1.4 0.05 0
1.4 0 0
1.45 0 0
1.4 0.05 0
1.45 0.05 0
1.45 0 0
1.5 0 0
1.45 0.05 0
1.5 0.05 0
1.5 0 0
1.55 0 0
1.5 0.05 0
1.55 0.05 0
1.55 0 0
1.6 0 0
1.55 0.05 0
1.6 0.05 0
1.6 0 0
1.65 0 0
1.6 0.05 0
1.65 0.05 0
1.65 0 0
1.7 0 0
1.65 0.05 0
1.7 0.05 0
1.7 0 0
1.75 0 0
1.7 0.05 0
1.75 0.05 0
1.75 0 0
1.8 0 0
1.75 0.05 0
1.8 0.05 0
1.8 0 0
1.85 0 0
1.8 0.05 0
1.85 0.05 0
1.85 0 0
1.9 0 0
1.85 0.05 0
1.9 0.05 0
1.9 0 0
1.95 0 0
1.9 0.05 0
1.95 0.05 0
1.95 0 0
2 0 0
1.95 0.05 0
2 0.05 0
0 0.05 0
0.05 0.05 0
0 0.1 0
0.05 0.1 0
0.05 0.05 0
0.1 0.05 0
0.05 0.1 0
0.1 0.1 0
0.1 0.05 0
0.15 0.05 0
0.1 0.1 0
0.15 0.1 0
0.15 0.05 0
0.2 0.05 0
0.15 0.1 0
0.2 0.1 0
0.2 0.05 0
0.25 0.05 0
0.2 0.1 0
0.25 0.1 0
0.25 0.05 0
0.3 0.05 0
0.25 0.1 0
0.3 0.1 0
0.3 0.05 0
0.35 0.05 0
0.3 0.1 0
0.35 0.1 0
0.35 0.05 0
0.4 0.05 0
0.35 0.1 0
0.4 0.1 0
0.4 0.05 0
0.45 0.05 0
0.4 0.1 0
0.45 0.1 0
0.45 0.05 0
0.5 0.05 0
0.45 0.1 0
0.5 0.1 0
0.5 0.05 0
0.55 0.05 0
0.5 0.1 0
0.55 0.1 0
0.55 0.05 0
0.6 0.05 0
0.55 0.1 0
0.6 0.1 0
0.6 0.05 0
0.65 0.05 0
0.6 0.1 0
0.65 0.1 0
0.65 0.05 0
0.7 0.05 0
0.65 0.1 0
0.7 0.1 0
0.7 0.05 0
0.75 0.05 0
0.7 0.1 0
0.75 0.1 0
0.75 0.05 0
0.8 0.05 0
0.75 0.1 0
0.8 0.1 0
0.8 0.05 0
0.85 0.05 0
0.8 0.1 0
0.85 0.1 0
0.85 0.05 0
0.9 0.05 0
0.85 0.1 0
0.9 0.1 0
0.9 0.05 0
0.95 0.05 0
0.9 0.1 0
0.95 0.1 0
0.95 0.05 0
1 0.05 0
0.95 0.1 0
1 0.1 0
1 0.05 0
1.05 0.05 0
1 0.1 0
1.05 0.1 0
1.05 0.05 0
1.1 0.05 0
1.05 0.1 0
1.1 0.1 0
1.1 0.05 0
1.15 0.05 0
1.1 0.1 0
1.15 0.1 0
1.15 0.05 0
1.2 0.05 0
1.15 0.1 0
1.2 0.1 0
1.2 0.05 0
1.25 0.05 0
1.2 0.1 0
1.25 0.1 0
1.25 0.05 0
1.3 0.05 0
1.25 0.1 0
1.3 0.1 0
1.3 0.05 0
1.35 0.05 0
1.3 0.1 0
1.35 0.1 0
1.35 0.05 0
1.4 0.05 0
1.35 0.1 0
1.4 0.1 0
1.4 0.05 0
1.45 0.05 0
1.4 0.1 0
1.45 0.1 0
1.45 0.05 0
1.5 0.05 0
1.45 0.1 0
1.5 0.1 0
1.5 0.05 0
1.55 0.05 0
1.5 0.1 0
1.55 0.1 0
1.55 0.05 0
1.6 0.05 0
1.55 0.1 0
1.6 0.1 0
1.6 0.05 0
1.65 0.05 0
1.6 0.1 0
1.65 0.1 0
1.65 0.05 0
1.7 0.05 0
1.65 0.1 0
1.7 0.1 0
1.7 0.05 0
1.75 0.05 0
1.7 0.1 0
1.75 0.1 0
1.75 0.05 0
1.8 0.05 0
1.75 0.1 0
1.8 0.1 0
1.8 0.05 0
1.85 0.05 0
1.8 0.1 0
1.85 0.1 0
1.85 0.05 0
1.9 0.05 0
1.85 0.1 0
1.9 0.1 0
1.9 0.05 0
1.95 0.05 0
1.9 0.1 0
1.95 0.1 0
1.95 0.05 0
2 0.05 0
1.95 0.1 0
2 0.1 0
0 0.1 0
0.05 0.1 0
0 0.15 0
0.05 0.15 0
0.05 0.1 0
0.1 0.1 0
0.05 0.15 0
0.1 0.15 0
0.1 0.1 0
0.15 0.1 0
0.1 0.15 0
0.15 0.15 0
0.15 0.1 0
0.2 0.1 0
0.15 0.15 0
0.2 0.15 0
0.2 0.1 0
0.25 0.1 0
0.2 0.15 0
0.25 0.15 0
0.25 0.1 0
0.3 0.1 0
0.25 0.15 0
0.3 0.15 0
0.3 0.1 0
0.35 0.1 0
0.3 0.15 0
0.35 0.15 0
0.35 0.1 0
0.4 0.1 0
0.35 0.15 0
0.4 0.15 0
0.4 0.1 0
0.45 0.1 0
0.4 0.15 0
0.45 0.15 0
0.45 0.1 0
0.5 0.1 0
0.45 0.15 0
0.5 0.15 0
0.5 0.1 0
0.55 0.1 0
0.5 0.15 0
0.55 0.15 0
0.55 0.1 0
0.6 0.1 0
0.55 0.15 0
0.6 0.15 0
0.6 0.1 0
0.65 0.1 0
0.6 0.15 0
0.65 0.15 0
0.65 0.1 0
0.7 0.1 0
0.65 0.15 0
0.7 0.15 0
0.7 0.1 0
0.75 0.1 0
0.7 0.15 0
0.75 0.15 0
0.75 0.1 0
0.8 0.1 0
0.75 0.15 0
0.8 0.15 0
0.8 0.1 0
0.85 0.1 0
0.8 0.15 0
0.85 0.15 0
0.85 0.1 0
0.9 0.1 0
0.85 0.15 0
0.9 0.15 0
0.9 0.1 0
0.95 0.1 0
0.9 0.15 0
0.95 0.15 0
0.95 0.1 0
1 0.1 0
0.95 0.15 0
1 0.15 0
1 0.1 0
1.05 0.1 0
1 0.15 0
1.05 0.15 0
1.05 0.1 0
1.1 0.1 0
1.05 0.15 0
1.1 0.15 0
1.1 0.1 0
1.15 0.1 0
1.1 0.15 0
1.15 0.15 0
1.15 0.1 0
1.2 0.1 0
1.15 0.15 0
1.2 0.15 0
1.2 0.1 0
1.25 0.1 0
1.2 0.15 0
1.25 0.15 0
1.25 0.1 0
1.3 0.1 0
1.25 0.15 0
1.3 0.15 0
1.3 0.1 0
1.35 0.1 0
1.3 0.15 0
1.35 0.15 0
1.35 0.1 0
1.4 0.1 0
1.35 0.15 0
1.4 0.15 0
1.4 0.1 0
1.45 0.1 0
1.4 0.15 0
1.45 0.15 0
1.45 0.1 0
1.5 0.1 0
1.45 0.15 0
1.5 0.15 0
1.5 0.1 0
1.55 0.1 0
1.5 0.15 0
1.55 0.15 0
1.55 0.1 0
1.6 0.1 0
1.55 0.15 0
1.6 0.15 0
1.6 0.1 0
1.65 0.1 0
1.6 0.15 0
1.65 0.15 0
1.65 0.1 0
1.7 0.1 0
1.65 0.15 0
1.7 0.15 0
1.7 0.1 0
1.75 0.1 0
1.7 0.15 0
1.75 0.15 0
1.75 0.1 0
1.8 0.1 0
1.75 0.15 0
1.8 0.15 0
1.8 0.1 0
1.85 0.1 0
1.8 0.15 0
1.85 0.15 0
1.85 0.1 0
1.9 0.1 0
1.85 0.15 0
1.9 0.15 0
1.9 0.1 0
1.95 0.1 0
1.9 0.15 0
1.95 0.15 0
1.95 0.1 0
2 0.1 0
1.95 0.15 0
2 0.15 0
0 0.15 0
0.05 0.15 0
0 0.2 0
0.05 0.2 0
0.05 0.15 0
0.1 0.15 0
0.05 0.2 0
0.1 0.2 0
0.1 0.15 0
0.15 0.15 0
0.1 0.2 0
0.15 0.2 0
0.15 0.15 0
0.2 0.15 0
0.15 0.2 0
0.2 0.2 0
0.2 0.15 0
0.25 0.15 0
0.2 0.2 0
0.25 0.2 0
0.25 0.15 0
0.3 0.15 0
0.25 0.2 0
0.3 0.2 0
0.3 0.15 0
0.35 0.15 0
0.3 0.2 0
0.35 0.2 0
0.35 0.15 0
0.4 0.15 0
0.35 0.2 0
0.4 0.2 0
0.4 0.15 0
0.45 0.15 0
0.4 0.2 0
0.45 0.2 0
0.45 0.15 0
0.5 0.15 0
0.45 0.2 0
0.5 0.2 0
0.5 0.15 0
0.55 0.15 0
0.5 0.2 0
0.55 0.2 0
0.55 0.15 0
0.6 0.15 0
0.55 0.2 0
0.6 0.2 0
0.6 0.15 0
0.65 0.15 0
0.6 0.2 0
0.65 0.2 0
0.65 0.15 0
0.7 0.15 0
0.65 0.2 0
0.7 0.2 0
0.7 0.15 0
0.75 0.15 0
0.7 0.2 0
0.75 0.2 0
0.75 0.15 0
0.8 0.15 0
0.75 0.2 0
0.8 0.2 0
0.8 0.15 0
0.85 0.15 0
0.8 0.2 0
0.85 0.2 0
0.85 0.15 0
0.9 0.15 0
0.85 0.2 0
0.9 0.2 0
0.9 0.15 0
0.95 0.15 0
0.9 0.2 0
0.95 0.2 0
0.95 0.15 0
1 0.15 0
0.95 0.2 0
1 0.2 0
1 0.15 0
1.05 0.15 0
1 0.2 0
1.05 0.2 0
1.05 0.15 0
1.1 0.15 0
1.05 0.2 0
1.1 0.2 0
1.1 0.15 0
1.15 0.15 0
1.1 0.2 0
1.15 0.2 0
1.15 0.15 0
1.2 0.15 0
1.15 0.2 0
1.2 0.2 0
1.2 0.15 0
1.25 0.15 0
1.2 0.2 0
1.25 0.2 0
1.25 0.15 0
1.3 0.15 0
1.25 0.2 0
1.3 0.2 0
1.3 0.15 0
1.35 0.15 0
1.3 0.2 0
1.35 0.2 0
1.35 0.15 0
1.4 0.15 0
1.35 0.2 0
1.4 0.2 0
1.4 0.15 0
1.45 0.15 0
1.4 0.2 0
1.45 0.2 0
1.45 0.15 0
1.5 0.15 0
1.45 0.2 0
1.5 0.2 0
1.5 0.15 0
1.55 0.15 0
1.5 0.2 0
1.55 0.2 0
1.55 0.15 0
1.6 0.15 0
1.55 0.2 0
1.6 0.2 0
1.6 0.15 0
1.65 0.15 0
1.6 0.2 0
1.65 0.2 0
1.65 0.15 0
1.7 0.15 0
1.65 0.2 0
1.7 0.2 0
1.7 0.15 0
1.75 0.15 0
1.7 0.2 0
1.75 0.2 0
1.75 0.15 0
1.8 0.15 0
1.75 0.2 0
1.8 0.2 0
1.8 0.15 0
1.85 0.15 0
1.8 0.2 0
1.85 0.2 0
1.85 0.15 0
1.9 0.15 0
1.85 0.2 0
1.9 0.2 0
1.9 0.15 0
1.95 0.15 0
1.9 0.2 0
1.95 0.2 0
1.95 0.15 0
2 0.15 0
1.95 0.2 0
2 0.2 0
0 0.2 0
0.05 0.2 0
0 0.25 0
0.05 0.25 0
0.05 0.2 0
0.1 0.2 0
0.05 0.25 0
0.1 0.25 0
0.1 0.2 0
0.15 0.2 0
0.1 0.25 0
0.15 0.25 0
0.15 0.2 0
0.2 0.2 0
0.15 0.25 0
0.2 0.25 0
0.2 0.2 0
0.25 0.2 0
0.2 0.25 0
0.25 0.25 0
0.25 0.2 0
0.3 0.2 0
0.25 0.25 0
0.3 0.25 0
0.3 0.2 0
0.35 0.2 0
0.3 0.25 0
0.35 0.25 0
0.35 0.2 0
0.4 0.2 0
0.35 0.25 0
0.4 0.25 0
0.4 0.2 0
0.45 0.2 0
0.4 0.25 0
0.45 0.25 0
0.45 0.2 0
0.5 0.2 0
0.45 0.25 0
0.5 0.25 0
0.5 0.2 0
0.55 0.2 0
0.5 0.25 0
0.55 0.25 0
0.55 0.2 0
0.6 0.2 0
0.55 0.25 0
0.6 0.25 0
0.6 0.2 0
0.65 0.2 0
0.6 0.25 0
0.65 0.25 0
0.65 0.2 0
0.7 0.2 0
0.65 0.25 0
0.7 0.25 0
0.7 0.2 0
0.75 0.2 0
0.7 0.25 0
0.75 0.25 0
0.75 0.2 0
0.8 0.2 0
0.75 0.25 0
0.8 0.25 0
0.8 0.2 0
0.85 0.2 0
0.8 0.25 0
0.85 0.25 0
0.85 0.2 0
0.9 0.2 0
0.85 0.25 0
0.9 0.25 0
0.9 0.2 0
0.95 0.2 0
0.9 0.25 0
0.95 0.25 0
0.95 0.2 0
1 0.2 0
0.95 0.25 0
1 0.25 0
1 0.2 0
1.05 0.2 0
1 0.25 0
1.05 0.25 0
1.05 0.2 0
1.1 0.2 0
1.05 0.25 0
1.1 0.25 0
1.1 0.2 0
1.15 0.2 0
1.1 0.25 0
1.15 0.25 0
1.15 0.2 0
1.2 0.2 0
1.15 0.25 0
1.2 0.25 0
1.2 0.2 0
1.25 0.2 0
1.2 0.25 0
1.25 0.25 0
1.25 0.2 0
1.3 0.2 0
1.25 0.25 0
1.3 0.25 0
1.3 0.2 0
1.35 0.2 0
1.3 0.25 0
1.35 0.25 0
1.35 0.2 0
1.4 0.2 0
1.35 0.25 0
1.4 0.25 0
1.4 0.2 0
1.45 0.2 0
1.4 0.25 0
1.45 0.25 0
1.45 0.2 0
1.5 0.2 0
1.45 0.25 0
1.5 0.25 0
1.5 0.2 0
1.55 0.2 0
1.5 0.25 0
1.55 0.25 0
1.55 0.2 0
1.6 0.2 0
1.55 0.25 0
1.6 0.25 0
1.6 0.2 0
1.65 0.2 0
1.6 0.25 0
1.65 0.25 0
1.65 0.2 0
1.7 0.2 0
1.65 0.25 0
1.7 0.25 0
1.7 0.2 0
1.75 0.2 0
1.7 0.25 0
1.75 0.25 0
1.75 0.2 0
1.8 0.2 0
1.75 0.25 0
1.8 0.25 0
1.8 0.2 0
1.85 0.2 0
1.8 0.25 0
1.85 0.25 0
1.85 0.2 0
1.9 0.2 0
1.85 0.25 0
1.9 0.25 0
1.9 0.2 0
1.95 0.2 0
1.9 0.25 0
1.95 0.25 0
1.95 0.2 0
2 0.2 0
1.95 0.25 0
2 0.25 0
0 0.25 0
0.05 0.25 0
0 0.3 0
0.05 0.3 0
0.05 0.25 0
0.1 0.25 0
0.05 0.3 0
0.1 0.3 0
0.1 0.25 0
0.15 0.25 0
0.1 0.3 0
0.15 0.3 0
0.15 0.25 0
0.2 0.25 0
0.15 0.3 0
0.2 0.3 0
0.2 0.25 0
0.25 0.25 0
0.2 0.3 0
0.25 0.3 0
0.25 0.25 0
0.3 0.25 0
0.25 0.3 0
0.3 0.3 0
0.3 0.25 0
0.35 0.25 0
0.3 0.3 0
0.35 0.3 0
0.35 0.25 0
0.4 0.25 0
0.35 0.3 0
0.4 0.3 0
0.4 0.25 0
0.45 0.25 0
0.4 0.3 0
0.45 0.3 0
0.45 0.25 0
0.5 0.25 0
0.45 0.3 0
0.5 0.3 0
0.5 0.25 0
0.55 0.25 0
0.5 0.3 0
0.55 0.3 0
0.55 0.25 0
0.6 0.25 0
0.55 0.3 0
0.6 0.3 0
0.6 0.25 0
0.65 0.25 0
0.6 0.3 0
0.65 0.3 0
0.65 0.25 0
0.7 0.25 0
0.65 0.3 0
0.7 0.3 0
0.7 0.25 0
0.75 0.25 0
0.7 0.3 0
0.75 0.3 0
0.75 0.25 0
0.8 0.25 0
0.75 0.3 0
0.8 0.3 0
0.8 0.25 0
0.85 0.25 0
0.8 0.3 0
0.85 0.3 0
0.85 0.25 0
0.9 0.25 0
0.85 0.3 0
0.9 0.3 0
0.9 0.25 0
0.95 0.25 0
0.9 0.3 0
0.95 0.3 0
0.95 0.25 0
1 0.25 0
0.95 0.3 0
1 0.3 0
1 0.25 0
1.05 0.25 0
1 0.3 0
1.05 0.3 0
1.05 0.25 0
1.1 0.25 0
1.05 0.3 0
1.1 0.3 0
1.1 0.25 0
1.15 0.25 0
1.1 0.3 0
1.15 0.3 0
1.15 0.25 0
1.2 0.25 0
1.15 0.3 0
1.2 0.3 0
1.2 0.25 0
1.25 0.25 0
1.2 0.3 0
1.25 0.3 0
1.25 0.25 0
1.3 0.25 0
1.25 0.3 0
1.3 0.3 0
1.3 0.25 0
1.35 0.25 0
1.3 0.3 0
1.35 0.3 0
1.35 0.25 0
1.4 0.25 0
1.35 0.3 0
1.4 0.3 0
1.4 0.25 0
1.45 0.25 0
1.4 0.3 0
1.45 0.3 0
1.45 0.25 0
1.5 0.25 0
[...]
POINT_DATA 3200
SCALARS x_displacement double 1
LOOKUP_TABLE default
0 7.87682 0 5.34462 7.87682 14.299 5.34462 11.1863 14.299 20.2753 11.1863 16.7448 20.2753 26.0394 16.7448 22.0671 26.0394 31.6416 22.0671 27.2016 31.6416 37.1014 27.2016 32.1775 37.1014 42.4243 32.1775 37.0096 42.4243 47.611 37.0096 41.7052 47.611 52.6599 41.7052 46.2673 52.6599 57.5683 46.2673 50.6967 57.5683 62.3337 50.6967 54.993 62.3337 66.9532 54.993 59.1553 66.9532 71.4245 59.1553 63.1822 71.4245 75.7454 63.1822 67.0726 75.7454 79.9141 67.0726 70.8252 79.9141 83.9289 70.8252 74.4388 83.9289 87.7883 74.4388 77.9123 87.7883 91.4911 77.9123 81.2445 91.4911 95.0361 81.2445 84.4344 95.0361 98.4221 84.4344 87.4812 98.4221 101.648 87.4812 90.3838 101.648 104.713 90.3838 93.1411 104.713 107.615 93.1411 95.7522 107.615 110.353 95.7522 98.2155 110.353 112.926 98.2155 100.53 112.926 115.33 100.53 102.693 115.33 117.563 102.693 104.702 117.563 119.619 104.702 106.555 119.619 121.494 106.555 108.248 121.494 123.179 108.248 109.775 123.179 124.666 109.775 111.132 124.666 125.942 111.132 112.311 125.942 126.996 112.311 113.308 126.996 127.82 113.308 114.117 127.82 128.409 114.117 114.739 128.409 128.774 114.739 115.18 128.774 128.945 115.18 115.459 128.945 128.979 115.459 115.604 128.979 128.954 115.604 115.657 128.954 128.939 115.657 115.67 0 5.34462 0 4.40736 5.34462 11.1863 4.40736 9.0879 11.1863 16.7448 9.0879 13.8896 16.7448 22.0671 13.8896 18.6005 22.0671 27.2016 18.6005 23.1831 27.2016 32.1775 23.1831 27.6329 32.1775 37.0096 27.6329 31.9533 37.0096 41.7052 31.9533 36.1479 41.7052 46.2673 36.1479 40.2191 46.2673 50.6967 40.2191 44.1683 50.6967 54.993 44.1683 47.9959 54.993 59.1553 47.9959 51.7017 59.1553 63.1822 51.7017 55.2854 63.1822 67.0726 55.2854 58.7463 67.0726 70.8252 58.7463 62.0836 70.8252 74.4388 62.0836 65.2967 74.4388 77.9123 65.2967 68.3847 77.9123 81.2445 68.3847 71.3468 81.2445 84.4344 71.3468 74.1822 84.4344 87.4812 74.1822 76.8903 87.4812 90.3838 76.8903 79.4702 90.3838 93.1411 79.4702 81.9211 93.1411 95.7522 81.9211 84.2423 95.7522 98.2155 84.2423 86.433 98.2155 100.53 86.433 88.492 100.53 102.693 88.492 90.4185 102.693 104.702 90.4185 92.2111 104.702 106.555 92.2111 93.8684 106.555 108.248 93.8684 95.3886 108.248 109.775 95.3886 96.7698 109.775 111.132 96.7698 98.0093 111.132 112.311 98.0093 99.1041 112.311 113.308 99.1041 100.05 113.308 114.117 100.05 100.843 114.117 114.739 100.843 101.478 114.739 115.18 101.478 101.952 115.18 115.459 101.952 102.267 115.459 115.604 102.267 102.436 115.604 115.657 102.436 102.492 115.657 115.67 102.492 102.498 0 4.40736 0 3.67822 4.40736 9.0879 3.67822 7.5592 9.0879 13.8896 7.5592 11.5631 13.8896 18.6005 11.5631 15.5913 18.6005 23.1831 15.5913 19.5646 23.1831 27.6329 19.5646 23.4506 27.6329 31.9533 23.4506 27.2358 31.9533 36.1479 27.2358 30.9155 36.1479 40.2191 30.9155 34.4878 40.2191 44.1683 34.4878 37.9522 44.1683 47.9959 37.9522 41.3087 47.9959 51.7017 41.3087 44.557 51.7017 55.2854 44.557 47.697 55.2854 58.7463 47.697 50.7283 58.7463 62.0836 50.7283 53.6505 62.0836 65.2967 53.6505 56.4633 65.2967 68.3847 56.4633 59.1661 68.3847 71.3468 59.1661 61.7584 71.3468 74.1822 61.7584 64.2396 74.1822 76.8903 64.2396 66.6094 76.8903 79.4702 66.6094 68.8672 79.4702 81.9211 68.8672 71.0125 81.9211 84.2423 71.0125 73.0449 84.2423 86.433 73.0449 74.9641 86.433 88.492 74.9641 76.7698 88.492 90.4185 76.7698 78.4619 90.4185 92.2111 78.4619 80.0405 92.2111 93.8684 80.0405 81.5057 93.8684 95.3886 81.5057 82.8578 95.3886 96.7698 82.8578 84.0972 96.7698 98.0093 84.0972 85.2236 98.0093 99.1041 85.2236 86.2361 99.1041 100.05 86.2361 87.1317 100.05 100.843 87.1317 87.9037 100.843 101.478 87.9037 88.5412 101.478 101.952 88.5412 89.0295 101.952 102.267 89.0295 89.355 102.267 102.436 89.355 89.5176 102.436 102.492 89.5176 89.5469 102.492 102.498 89.5469 89.5197 0 3.67822 0 3.05886 3.67822 7.5592 3.05886 6.259 7.5592 11.5631 6.259 9.56833 11.5631 15.5913 9.56833 12.9272 15.5913 19.5646 12.9272 16.2792 19.5646 23.4506 16.2792 19.5843 23.4506 27.2358 19.5843 22.8196 27.2358 30.9155 22.8196 25.9732 30.9155 34.4878 25.9732 29.0389 34.4878 37.9522 29.0389 32.0135 37.9522 41.3087 32.0135 34.8955 41.3087 44.557 34.8955 37.6842 44.557 47.697 37.6842 40.3792 47.697 50.7283 40.3792 42.9802 50.7283 53.6505 42.9802 45.487 53.6505 56.4633 45.487 47.8993 56.4633 59.1661 47.8993 50.2168 59.1661 61.7584 50.2168 52.4394 61.7584 64.2396 52.4394 54.5667 64.2396 66.6094 54.5667 56.5984 66.6094 68.8672 56.5984 58.5343 68.8672 71.0125 58.5343 60.3743 71.0125 73.0449 60.3743 62.1183 73.0449 74.9641 62.1183 63.7665 74.9641 76.7698 63.7665 65.3193 76.7698 78.4619 65.3193 66.7775 78.4619 80.0405 66.7775 68.1421 80.0405 81.5057 68.1421 69.4148 81.5057 82.8578 69.4148 70.5977 82.8578 84.0972 70.5977 71.6931 84.0972 85.2236 71.6931 72.7031 85.2236 86.2361 72.7031 73.629 86.2361 87.1317 73.629 74.4692 87.1317 87.9037 74.4692 75.2168 87.9037 88.5412 75.2168 75.8564 88.5412 89.0295 75.8564 76.3626 89.0295 89.355 76.3626 76.704 89.355 89.5176 76.704 76.861 89.5176 89.5469 76.861 76.8542 89.5469 89.5197 76.8542 76.7697 0 3.05886 0 2.4944 3.05886 6.259 2.4944 5.08963 6.259 9.56833 5.08963 7.77056 9.56833 12.9272 7.77056 10.5036 12.9272 16.2792 10.5036 13.2497 16.2792 19.5843 13.2497 15.9754 19.5843 22.8196 15.9754 18.657 22.8196 25.9732 18.657 21.2793 25.9732 29.0389 21.2793 23.8334 29.0389 32.0135 23.8334 26.3141 32.0135 34.8955 26.3141 28.7186 34.8955 37.6842 28.7186 31.0454 37.6842 40.3792 31.0454 33.2939 40.3792 42.9802 33.2939 35.4635 42.9802 45.487 35.4635 37.5541 45.487 47.8993 37.5541 39.5655 47.8993 50.2168 39.5655 41.4977 50.2168 52.4394 41.4977 43.3504 52.4394 54.5667 43.3504 45.1237 54.5667 56.5984 45.1237 46.8174 56.5984 58.5343 46.8174 48.4314 58.5343 60.3743 48.4314 49.966 60.3743 62.1183 49.966 51.4214 62.1183 63.7665 51.4214 52.7982 63.7665 65.3193 52.7982 54.0972 65.3193 66.7775 54.0972 55.3199 66.7775 68.1421 55.3199 56.4682 68.1421 69.4148 56.4682 57.5448 69.4148 70.5977 57.5448 58.553 70.5977 71.6931 58.553 59.4971 71.6931 72.7031 59.4971 60.3812 72.7031 73.629 60.3812 61.2095 73.629 74.4692 61.2095 61.9835 74.4692 75.2168 61.9835 62.6997 75.2168 75.8564 62.6997 63.3443 75.8564 76.3626 63.3443 63.8855 76.3626 76.704 63.8855 64.2723 76.704 76.861 64.2723 64.4501 76.861 76.8542 64.4501 64.4106 76.8542 76.7697 64.4106 64.2445 0 2.4944 0 1.96443 2.4944 5.08963 1.96443 3.99998 5.08963 7.77056 3.99998 6.0999 7.77056 10.5036 6.0999 8.24458 10.5036 13.2497 8.24458 10.4083 13.2497 15.9754 10.4083 12.5661 15.9754 18.657 12.5661 14.6978 18.657 21.2793 14.6978 16.7888 21.2793 23.8334 16.7888 18.8296 23.8334 26.3141 18.8296 20.8141 26.3141 28.7186 20.8141 22.7389 28.7186 31.0454 22.7389 24.602 31.0454 33.2939 24.602 26.4024 33.2939 35.4635 26.4024 28.1395 35.4635 37.5541 28.1395 29.8132 37.5541 39.5655 29.8132 31.4232 39.5655 41.4977 31.4232 32.9696 41.4977 43.3504 32.9696 34.4524 43.3504 45.1237 34.4524 35.8715 45.1237 46.8174 35.8715 37.2269 46.8174 48.4314 37.2269 38.5189 48.4314 49.966 38.5189 39.7478 49.966 51.4214 39.7478 40.9139 51.4214 52.7982 40.9139 42.018 52.7982 54.0972 42.018 43.0614 54.0972 55.3199 43.0614 44.0458 55.3199 56.4682 44.0458 44.9736 56.4682 57.5448 44.9736 45.8479 57.5448 58.553 45.8479 46.673 58.553 59.4971 46.673 47.4542 59.4971 60.3812 47.4542 48.1976 60.3812 61.2095 48.1976 48.91 61.2095 61.9835 48.91 49.5979 61.9835 62.6997 49.5979 50.2647 62.6997 63.3443 50.2647 50.9062 63.3443 63.8855 50.9062 51.4996 63.8855 64.2723 51.4996 51.9797 64.2723 64.4501 51.9797 52.2404 64.4501 64.4106 52.2404 52.1945 64.4106 64.2445 52.1945 51.9223 0 1.96443 0 1.45683 1.96443 3.99998 1.45683 2.96215 3.99998 6.0999 2.96215 4.51307 6.0999 8.24458 4.51307 6.09826 8.24458 10.4083 6.09826 7.70137 10.4083 12.5661 7.70137 9.30514 12.5661 14.6978 9.30514 10.8944 14.6978 16.7888 10.8944 12.4572 16.7888 18.8296 12.4572 13.9853 18.8296 20.8141 13.9853 15.473 20.8141 22.7389 15.473 16.9169 22.7389 24.602 16.9169 18.315 24.602 26.4024 18.315 19.6661 26.4024 28.1395 19.6661 20.9698 28.1395 29.8132 20.9698 22.2258 29.8132 31.4232 22.2258 23.4339 31.4232 32.9696 23.4339 24.5941 32.9696 34.4524 24.5941 25.7065 34.4524 35.8715 25.7065 26.7712 35.8715 37.2269 26.7712 27.7882 37.2269 38.5189 27.7882 28.7578 38.5189 39.7478 28.7578 29.6802 39.7478 40.9139 29.6802 30.556 40.9139 42.018 30.556 31.3861 42.018 43.0614 31.3861 32.1716 43.0614 44.0458 32.1716 32.9142 44.0458 44.9736 32.9142 33.6163 44.9736 45.8479 33.6163 34.2811 45.8479 46.673 34.2811 34.9129 46.673 47.4542 34.9129 35.5171 47.4542 48.1976 35.5171 36.1007 48.1976 48.91 36.1007 36.6725 48.91 49.5979 36.6725 37.243 49.5979 50.2647 37.243 37.8239 50.2647 50.9062 37.8239 38.4265 50.9062 51.4996 38.4265 39.0529 51.4996 51.9797 39.0529 39.6741 51.9797 52.2404 39.6741 40.1261 52.2404 52.1945 40.1261 40.17 52.1945 51.9223 40.17 39.7624 0 1.45683 0 0.963862 1.45683 2.96215 0.963862 1.95794 2.96215 4.51307 1.95794 2.98114 4.51307 6.09826 2.98114 4.02723 6.09826 7.70137 4.02723 5.08659 7.70137 9.30514 5.08659 6.14849 9.30514 10.8944 6.14849 7.20294 10.8944 12.4572 7.20294 8.24178 12.4572 13.9853 8.24178 9.25889 13.9853 15.473 9.25889 10.2501 15.473 16.9169 10.2501 11.2127 16.9169 18.315 11.2127 12.145 18.315 19.6661 12.145 13.0462 19.6661 20.9698 13.0462 13.9157 20.9698 22.2258 13.9157 14.7534 22.2258 23.4339 14.7534 15.559 23.4339 24.5941 15.559 16.3328 24.5941 25.7065 16.3328 17.0746 25.7065 26.7712 17.0746 17.7845 26.7712 27.7882 17.7845 18.4628 27.7882 28.7578 18.4628 19.1094 28.7578 29.6802 19.1094 19.7248 29.6802 30.556 19.7248 20.3094 30.556 31.3861 20.3094 20.8639 31.3861 32.1716 20.8639 21.3891 32.1716 32.9142 21.3891 21.8865 32.9142 33.6163 21.8865 22.3579 33.6163 34.2811 22.3579 22.806 34.2811 34.9129 22.806 23.2342 34.9129 35.5171 23.2342 23.6472 35.5171 36.1007 23.6472 24.051 36.1007 36.6725 24.051 24.454 36.6725 37.243 24.454 24.8676 37.243 37.8239 24.8676 25.3077 37.8239 38.4265 25.3077 25.7968 38.4265 39.0529 25.7968 26.3664 39.0529 39.6741 26.3664 27.0475 39.6741 40.1261 27.0475 27.8513 40.1261 40.17 27.8513 28.2066 40.17 39.7624 28.2066 27.7187 0 0.963862 0 0.479811 0.963862 1.95794 0.479811 0.974135 1.95794 2.98114 0.974135 1.48264 2.98114 4.02723 1.48264 2.00255 4.02723 5.08659 2.00255 2.52943 5.08659 6.14849 2.52943 3.05814 6.14849 7.20294 3.05814 3.58378 7.20294 8.24178 3.58378 4.10219 8.24178 9.25889 4.10219 4.61019 9.25889 10.2501 4.61019 5.10556 10.2501 11.2127 5.10556 5.58681 11.2127 12.145 5.58681 6.05304 12.145 13.0462 6.05304 6.50374 13.0462 13.9157 6.50374 6.93861 13.9157 14.7534 6.93861 7.35754 14.7534 15.559 7.35754 7.76047 15.559 16.3328 7.76047 8.14741 16.3328 17.0746 8.14741 8.51838 17.0746 17.7845 8.51838 8.87342 17.7845 18.4628 8.87342 9.2126 18.4628 19.1094 9.2126 9.53604 19.1094 19.7248 9.53604 9.84389 19.7248 20.3094 9.84389 10.1364 20.3094 20.8639 10.1364 10.414 20.8639 21.3891 10.414 10.6771 21.3891 21.8865 10.6771 10.9265 21.8865 22.3579 10.9265 11.1634 22.3579 22.806 11.1634 11.389 22.806 23.2342 11.389 11.6054 23.2342 23.6472 11.6054 11.8152 23.6472 24.051 11.8152 12.0221 24.051 24.454 12.0221 12.2312 24.454 24.8676 12.2312 12.4499 24.8676 25.3077 12.4499 12.6897 25.3077 25.7968 12.6897 12.9695 25.7968 26.3664 12.9695 13.3216 26.3664 27.0475 13.3216 13.81 27.0475 27.8513 13.81 14.5414 27.8513 28.2066 14.5414 15.8676 28.2066 27.7187 15.8676 15.2927 0 0.479811 0 -6.44128e-13 0.479811 0.974135 -6.44128e-13 -4.42697e-12 0.974135 1.48264 -4.42697e-12 -4.78557e-12 1.48264 2.00255 -4.78557e-12 -6.4507e-12 2.00255 2.52943 -6.4507e-12 -6.32655e-12 2.52943 3.05814 -6.32655e-12 -8.81668e-12 3.05814 3.58378 -8.81668e-12 -8.94821e-12 3.58378 4.10219 -8.94821e-12 -7.37556e-12 4.10219 4.61019 -7.37556e-12 -4.86506e-12 4.61019 5.10556 -4.86506e-12 -3.61613e-12 5.10556 5.58681 -3.61613e-12 -3.82068e-12 5.58681 6.05304 -3.82068e-12 -6.2788e-12 6.05304 6.50374 -6.2788e-12 -7.19162e-12 6.50374 6.93861 -7.19162e-12 -1.00219e-11 6.93861 7.35754 -1.00219e-11 -1.31564e-11 7.35754 7.76047 -1.31564e-11 -1.39519e-11 7.76047 8.14741 -1.39519e-11 -1.54181e-11 8.14741 8.51838 -1.54181e-11 -1.6808e-11 8.51838 8.87342 -1.6808e-11 -1.59868e-11 8.87342 9.2126 -1.59868e-11 -1.42311e-11 9.2126 9.53604 -1.42311e-11 -1.17397e-11 9.53604 9.84389 -1.17397e-11 -9.99652e-12 9.84389 10.1364 -9.99652e-12 -1.06533e-11 10.1364 10.414 -1.06533e-11 -9.17478e-12 10.414 10.6771 -9.17478e-12 -7.29133e-12 10.6771 10.9265 -7.29133e-12 -4.95405e-12 10.9265 11.1634 -4.95405e-12 -6.89134e-13 11.1634 11.389 -6.89134e-13 2.48271e-12 11.389 11.6054 2.48271e-12 3.06218e-12 11.6054 11.8152 3.06218e-12 4.87576e-12 11.8152 12.0221 4.87576e-12 4.91677e-12 12.0221 12.2312 4.91677e-12 3.50267e-12 12.2312 12.4499 3.50267e-12 3.36845e-12 12.4499 12.6897 3.36845e-12 8.986e-13 12.6897 12.9695 8.986e-13 -3.04327e-12 12.9695 13.3216 -3.04327e-12 -7.70286e-12 13.3216 13.81 -7.70286e-12 -1.04829e-11 13.81 14.5414 -1.04829e-11 -1.35318e-11 14.5414 15.8676 -1.35318e-11 -1.37259e-11 15.8676 15.2927 -1.37259e-11 -1.76918e-11 0 -6.44128e-13 0 -0.479811 -6.44128e-13 -4.42697e-12 -0.479811 -0.974135 -4.42697e-12 -4.78557e-12 -0.974135 -1.48264 -4.78557e-12 -6.4507e-12 -1.48264 -2.00255 -6.4507e-12 -6.32655e-12 -2.00255 -2.52943 -6.32655e-12 -8.81668e-12 -2.52943 -3.05814 -8.81668e-12 -8.94821e-12 -3.05814 -3.58378 -8.94821e-12 -7.37556e-12 -3.58378 -4.10219 -7.37556e-12 -4.86506e-12 -4.10219 -4.61019 -4.86506e-12 -3.61613e-12 -4.61019 -5.10556 -3.61613e-12 -3.82068e-12 -5.10556 -5.58681 -3.82068e-12 -6.2788e-12 -5.58681 -6.05304 -6.2788e-12 -7.19162e-12 -6.05304 -6.50374 -7.19162e-12 -1.00219e-11 -6.50374 -6.93861 -1.00219e-11 -1.31564e-11 -6.93861 -7.35754 -1.31564e-11 -1.39519e-11 -7.35754 -7.76047 -1.39519e-11 -1.54181e-11 -7.76047 -8.14741 -1.54181e-11 -1.6808e-11 -8.14741 -8.51838 -1.6808e-11 -1.59868e-11 -8.51838 -8.87342 -1.59868e-11 -1.42311e-11 -8.87342 -9.2126 -1.42311e-11 -1.17397e-11 -9.2126 -9.53604 -1.17397e-11 -9.99652e-12 -9.53604 -9.84389 -9.99652e-12 -1.06533e-11 -9.84389 -10.1364 -1.06533e-11 -9.17478e-12 -10.1364 -10.414 -9.17478e-12 -7.29133e-12 -10.414 -10.6771 -7.29133e-12 -4.95405e-12 -10.6771 -10.9265 -4.95405e-12 -6.89134e-13 -10.9265 -11.1634 -6.89134e-13 2.48271e-12 -11.1634 -11.389 2.48271e-12 3.06218e-12 -11.389 -11.6054 3.06218e-12 4.87576e-12 -11.6054 -11.8152 4.87576e-12 4.91677e-12 -11.8152 -12.0221 4.91677e-12 3.50267e-12 -12.0221 -12.2312 3.50267e-12 3.36845e-12 -12.2312 -12.4499 3.36845e-12 8.986e-13 -12.4499 -12.6897 8.986e-13 -3.04327e-12 -12.6897 -12.9695 -3.04327e-12 -7.70286e-12 -12.9695 -13.3216 -7.70286e-12 -1.04829e-11 -13.3216 -13.81 -1.04829e-11 -1.35318e-11 -13.81 -14.5414 -1.35318e-11 -1.37259e-11 -14.5414 -15.8676 -1.37259e-11 -1.76918e-11 -15.8676 -15.2927 0 -0.479811 0 -0.963862 -0.479811 -0.974135 -0.963862 -1.95794 -0.974135 -1.48264 -1.95794 -2.98114 -1.48264 -2.00255 -2.98114 -4.02723 -2.00255 -2.52943 -4.02723 -5.08659 -2.52943 -3.05814 -5.08659 -6.14849 -3.05814 -3.58378 -6.14849 -7.20294 -3.58378 -4.10219 -7.20294 -8.24178 -4.10219 -4.61019 -8.24178 -9.25889 -4.61019 -5.10556 -9.25889 -10.2501 -5.10556 -5.58681 -10.2501 -11.2127 -5.58681 -6.05304 -11.2127 -12.145 -6.05304 -6.50374 -12.145 -13.0462 -6.50374 -6.93861 -13.0462 -13.9157 -6.93861 -7.35754 -13.9157 -14.7534 -7.35754 -7.76047 -14.7534 -15.559 -7.76047 -8.14741 -15.559 -16.3328 -8.14741 -8.51838 -16.3328 -17.0746 -8.51838 -8.87342 -17.0746 -17.7845 -8.87342 -9.2126 -17.7845 -18.4628 -9.2126 -9.53604 -18.4628 -19.1094 -9.53604 -9.84389 -19.1094 -19.7248 -9.84389 -10.1364 -19.7248 -20.3094 -10.1364 -10.414 -20.3094 -20.8639 -10.414 -10.6771 -20.8639 -21.3891 -10.6771 -10.9265 -21.3891 -21.8865 -10.9265 -11.1634 -21.8865 -22.3579 -11.1634 -11.389 -22.3579 -22.806 -11.389 -11.6054 -22.806 -23.2342 -11.6054 -11.8152 -23.2342 -23.6472 -11.8152 -12.0221 -23.6472 -24.051 -12.0221 -12.2312 -24.051 -24.454 -12.2312 -12.4499 -24.454 -24.8676 -12.4499 -12.6897 -24.8676 -25.3077 -12.6897 -12.9695 -25.3077 -25.7968 -12.9695 -13.3216 -25.7968 -26.3664 -13.3216 -13.81 -26.3664 -27.0475 -13.81 -14.5414 -27.0475 -27.8513 -14.5414 -15.8676 -27.8513 -28.2066 -15.8676 -15.2927 -28.2066 -27.7187 0 -0.963862 0 -1.45683 -0.963862 -1.95794 -1.45683 -2.96215 -1.95794 -2.98114 -2.96215 -4.51307 -2.98114 -4.02723 -4.51307 -6.09826 -4.02723 -5.08659 -6.09826 -7.70137 -5.08659 -6.14849 -7.70137 -9.30514 -6.14849 -7.20294 -9.30514 -10.8944 -7.20294 -8.24178 -10.8944 -12.4572 -8.24178 -9.25889 -12.4572 -13.9853 -9.25889 -10.2501 -13.9853 -15.473 -10.2501 -11.2127 -15.473 -16.9169 -11.2127 -12.145 -16.9169 -18.315 -12.145 -13.0462 -18.315 -19.6661 -13.0462 -13.9157 -19.6661 -20.9698 -13.9157 -14.7534 -20.9698 -22.2258 -14.7534 -15.559 -22.2258 -23.4339 -15.559 -16.3328 -23.4339 -24.5941 -16.3328 -17.0746 -24.5941 -25.7065 -17.0746 -17.7845 -25.7065 -26.7712 -17.7845 -18.4628 -26.7712 -27.7882 -18.4628 -19.1094 -27.7882 -28.7578 -19.1094 -19.7248 -28.7578 -29.6802 -19.7248 -20.3094 -29.6802 -30.556 -20.3094 -20.8639 -30.556 -31.3861 -20.8639 -21.3891 -31.3861 -32.1716 -21.3891 -21.8865 -32.1716 -32.9142 -21.8865 -22.3579 -32.9142 -33.6163 -22.3579 -22.806 -33.6163 -34.2811 -22.806 -23.2342 -34.2811 -34.9129 -23.2342 -23.6472 -34.9129 -35.5171 -23.6472 -24.051 -35.5171 -36.1007 -24.051 -24.454 -36.1007 -36.6725 -24.454 -24.8676 -36.6725 -37.243 -24.8676 -25.3077 -37.243 -37.8239 -25.3077 -25.7968 -37.8239 -38.4265 -25.7968 -26.3664 -38.4265 -39.0529 -26.3664 -27.0475 -39.0529 -39.6741 -27.0475 -27.8513 -39.6741 -40.1261 -27.8513 -28.2066 -40.1261 -40.17 -28.2066 -27.7187 -40.17 -39.7624 0 -1.45683 0 -1.96443 -1.45683 -2.96215 -1.96443 -3.99998 -2.96215 -4.51307 -3.99998 -6.0999 -4.51307 -6.09826 -6.0999 -8.24458 -6.09826 -7.70137 -8.24458 -10.4083 -7.70137 -9.30514 -10.4083 -12.5661 -9.30514 -10.8944 -12.5661 -14.6978 -10.8944 -12.4572 -14.6978 -16.7888 -12.4572 -13.9853 -16.7888 -18.8296 -13.9853 -15.473 -18.8296 -20.8141 -15.473 -16.9169 -20.8141 -22.7389 -16.9169 -18.315 -22.7389 -24.602 -18.315 -19.6661 -24.602 -26.4024 -19.6661 -20.9698 -26.4024 -28.1395 -20.9698 -22.2258 -28.1395 -29.8132 -22.2258 -23.4339 -29.8132 -31.4232 -23.4339 -24.5941 -31.4232 -32.9696 -24.5941 -25.7065 -32.9696 -34.4524 -25.7065 -26.7712 -34.4524 -35.8715 -26.7712 -27.7882 -35.8715 -37.2269 -27.7882 -28.7578 -37.2269 -38.5189 -28.7578 -29.6802 -38.5189 -39.7478 -29.6802 -30.556 -39.7478 -40.9139 -30.556 -31.3861 -40.9139 -42.018 -31.3861 -32.1716 -42.018 -43.0614 -32.1716 -32.9142 -43.0614 -44.0458 -32.9142 -33.6163 -44.0458 -44.9736 -33.6163 -34.2811 -44.9736 -45.8479 -34.2811 -34.9129 -45.8479 -46.673 -34.9129 -35.5171 -46.673 -47.4542 -35.5171 -36.1007 -47.4542 -48.1976 -36.1007 -36.6725 -48.1976 -48.91 -36.6725 -37.243 -48.91 -49.5979 -37.243 -37.8239 -49.5979 -50.2647 -37.8239 -38.4265 -50.2647 -50.9062 -38.4265 -39.0529 -50.9062 -51.4996 -39.0529 -39.6741 -51.4996 -51.9797 -39.6741 -40.1261 -51.9797 -52.2404 -40.1261 -40.17 -52.2404 -52.1945 -40.17 -39.7624 -52.1945 -51.9223 0 -1.96443 0 -2.4944 -1.96443 -3.99998 -2.4944 -5.08963 -3.99998 -6.0999 -5.08963 -7.77056 -6.0999 -8.24458 -7.77056 -10.5036 -8.24458 -10.4083 -10.5036 -13.2497 -10.4083 -12.5661 -13.2497 -15.9754 -12.5661 -14.6978 -15.9754 -18.657 -14.6978 -16.7888 -18.657 -21.2793 -16.7888 -18.8296 -21.2793 -23.8334 -18.8296 -20.8141 -23.8334 -26.3141 -20.8141 -22.7389 -26.3141 -28.7186 -22.7389 -24.602 -28.7186 -31.0454 -24.602 -26.4024 -31.0454 -33.2939 -26.4024 -28.1395 -33.2939 -35.4635 -28.1395 -29.8132 -35.4635 -37.5541 -29.8132 -31.4232 -37.5541 -39.5655 -31.4232 -32.9696 -39.5655 -41.4977 -32.9696 -34.4524 -41.4977 -43.3504 -34.4524 -35.8715 -43.3504 -45.1237 -35.8715 -37.2269 -45.1237 -46.8174 -37.2269 -38.5189 -46.8174 -48.4314 -38.5189 -39.7478 -48.4314 -49.966 -39.7478 -40.9139 -49.966 -51.4214 -40.9139 -42.018 -51.4214 -52.7982 -42.018 -43.0614 -52.7982 -54.0972 -43.0614 -44.0458 -54.0972 -55.3199 -44.0458 -44.9736 -55.3199 -56.4682 -44.9736 -45.8479 -56.4682 -57.5448 -45.8479 -46.673 -57.5448 -58.553 -46.673 -47.4542 -58.553 -59.4971 -47.4542 -48.1976 -59.4971 -60.3812 -48.1976 -48.91 -60.3812 -61.209