# vtk DataFile Version 3.0
#This file was generated by the deal.II library on 2015/9/2 at 7:54:40
ASCII
DATASET UNSTRUCTURED_GRID

POINTS 41912 double
0 0 0
0.05 0 0
0 0.05 0
0.05 0.05 0
0.05 0 0
0.1 0 0
0.05 0.05 0
0.1 0.05 0
0.1 0 0
0.15 0 0
0.1 0.05 0
0.15 0.05 0
0.15 0 0
0.2 0 0
0.15 0.05 0
0.2 0.05 0
0.2 0 0
0.25 0 0
0.2 0.05 0
0.25 0.05 0
0.25 0 0
0.3 0 0
0.25 0.05 0
0.3 0.05 0
0.3 0 0
0.35 0 0
0.3 0.05 0
0.35 0.05 0
0.35 0 0
0.4 0 0
0.35 0.05 0
0.4 0.05 0
0.4 0 0
0.45 0 0
0.4 0.05 0
0.45 0.05 0
0.45 0 0
0.5 0 0
0.45 0.05 0
0.5 0.05 0
0.5 0 0
0.55 0 0
0.5 0.05 0
0.55 0.05 0
0.55 0 0
0.6 0 0
0.55 0.05 0
0.6 0.05 0
0.6 0 0
0.65 0 0
0.6 0.05 0
0.65 0.05 0
0.65 0 0
0.7 0 0
0.65 0.05 0
0.7 0.05 0
0.7 0 0
0.75 0 0
0.7 0.05 0
0.75 0.05 0
0.75 0 0
0.8 0 0
0.75 0.05 0
0.8 0.05 0
0.8 0 0
0.85 0 0
0.8 0.05 0
0.85 0.05 0
0.85 0 0
0.9 0 0
0.85 0.05 0
0.9 0.05 0
0.9 0 0
0.95 0 0
0.9 0.05 0
0.95 0.05 0
0.95 0 0
1 0 0
0.95 0.05 0
1 0.05 0
1 0 0
1.05 0 0
1 0.05 0
1.05 0.05 0
1.05 0 0
1.1 0 0
1.05 0.05 0
1.1 0.05 0
1.1 0 0
1.15 0 0
1.1 0.05 0
1.15 0.05 0
1.15 0 0
1.2 0 0
1.15 0.05 0
1.2 0.05 0
1.2 0 0
1.25 0 0
1.2 0.05 0
1.25 0.05 0
1.45 0 0
1.5 0 0
1.45 0.05 0
1.5 0.05 0
1.5 0 0
1.55 0 0
1.5 0.05 0
1.55 0.05 0
1.55 0 0
1.6 0 0
1.55 0.05 0
1.6 0.05 0
1.6 0 0
1.65 0 0
1.6 0.05 0
1.65 0.05 0
1.65 0 0
1.7 0 0
1.65 0.05 0
1.7 0.05 0
1.7 0 0
1.75 0 0
1.7 0.05 0
1.75 0.05 0
1.75 0 0
1.8 0 0
1.75 0.05 0
1.8 0.05 0
1.8 0 0
1.85 0 0
1.8 0.05 0
1.85 0.05 0
1.85 0 0
1.9 0 0
1.85 0.05 0
1.9 0.05 0
1.9 0 0
1.95 0 0
1.9 0.05 0
1.95 0.05 0
1.95 0 0
2 0 0
1.95 0.05 0
2 0.05 0
0 0.05 0
0.05 0.05 0
0 0.1 0
0.05 0.1 0
0.05 0.05 0
0.1 0.05 0
0.05 0.1 0
0.1 0.1 0
0.1 0.05 0
0.15 0.05 0
0.1 0.1 0
0.15 0.1 0
0.15 0.05 0
0.2 0.05 0
0.15 0.1 0
0.2 0.1 0
0.2 0.05 0
0.25 0.05 0
0.2 0.1 0
0.25 0.1 0
0.25 0.05 0
0.3 0.05 0
0.25 0.1 0
0.3 0.1 0
0.3 0.05 0
0.35 0.05 0
0.3 0.1 0
0.35 0.1 0
1.15 0.05 0
1.2 0.05 0
1.15 0.1 0
1.2 0.1 0
1.2 0.05 0
1.25 0.05 0
1.2 0.1 0
1.25 0.1 0
1.55 0.05 0
1.6 0.05 0
1.55 0.1 0
1.6 0.1 0
1.6 0.05 0
1.65 0.05 0
1.6 0.1 0
1.65 0.1 0
1.65 0.05 0
1.7 0.05 0
1.65 0.1 0
1.7 0.1 0
1.7 0.05 0
1.75 0.05 0
1.7 0.1 0
1.75 0.1 0
1.75 0.05 0
1.8 0.05 0
1.75 0.1 0
1.8 0.1 0
1.8 0.05 0
1.85 0.05 0
1.8 0.1 0
1.85 0.1 0
1.85 0.05 0
1.9 0.05 0
1.85 0.1 0
1.9 0.1 0
1.9 0.05 0
1.95 0.05 0
1.9 0.1 0
1.95 0.1 0
1.95 0.05 0
2 0.05 0
1.95 0.1 0
2 0.1 0
0.15 0.1 0
0.2 0.1 0
0.15 0.15 0
0.2 0.15 0
0.2 0.1 0
0.25 0.1 0
0.2 0.15 0
0.25 0.15 0
0.25 0.1 0
0.3 0.1 0
0.25 0.15 0
0.3 0.15 0
0.3 0.1 0
0.35 0.1 0
0.3 0.15 0
0.35 0.15 0
1.65 0.1 0
1.7 0.1 0
1.65 0.15 0
1.7 0.15 0
1.7 0.1 0
1.75 0.1 0
1.7 0.15 0
1.75 0.15 0
1.75 0.1 0
1.8 0.1 0
1.75 0.15 0
1.8 0.15 0
1.8 0.1 0
1.85 0.1 0
1.8 0.15 0
1.85 0.15 0
1.85 0.1 0
1.9 0.1 0
1.85 0.15 0
1.9 0.15 0
1.9 0.1 0
1.95 0.1 0
1.9 0.15 0
1.95 0.15 0
1.95 0.1 0
2 0.1 0
1.95 0.15 0
2 0.15 0
0.3 0.15 0
0.35 0.15 0
0.3 0.2 0
0.35 0.2 0
1.75 0.15 0
1.8 0.15 0
1.75 0.2 0
1.8 0.2 0
1.8 0.15 0
1.85 0.15 0
1.8 0.2 0
1.85 0.2 0
1.85 0.15 0
1.9 0.15 0
1.85 0.2 0
1.9 0.2 0
1.9 0.15 0
1.95 0.15 0
1.9 0.2 0
1.95 0.2 0
1.95 0.15 0
2 0.15 0
1.95 0.2 0
2 0.2 0
0.4 0.2 0
0.45 0.2 0
0.4 0.25 0
0.45 0.25 0
0.8 0.2 0
0.85 0.2 0
0.8 0.25 0
0.85 0.25 0
0.85 0.2 0
0.9 0.2 0
0.85 0.25 0
0.9 0.25 0
0.9 0.2 0
0.95 0.2 0
0.9 0.25 0
0.95 0.25 0
0.95 0.2 0
1 0.2 0
0.95 0.25 0
1 0.25 0
1.8 0.2 0
1.85 0.2 0
1.8 0.25 0
1.85 0.25 0
1.85 0.2 0
1.9 0.2 0
1.85 0.25 0
1.9 0.25 0
1.9 0.2 0
1.95 0.2 0
1.9 0.25 0
1.95 0.25 0
1.95 0.2 0
2 0.2 0
1.95 0.25 0
2 0.25 0
0 0.25 0
0.05 0.25 0
0 0.3 0
0.05 0.3 0
0.05 0.25 0
0.1 0.25 0
0.05 0.3 0
0.1 0.3 0
0.1 0.25 0
0.15 0.25 0
0.1 0.3 0
0.15 0.3 0
0.95 0.25 0
1 0.25 0
0.95 0.3 0
1 0.3 0
1.25 0.25 0
1.3 0.25 0
1.25 0.3 0
1.3 0.3 0
1.3 0.25 0
1.35 0.25 0
1.3 0.3 0
1.35 0.3 0
1.9 0.25 0
1.95 0.25 0
1.9 0.3 0
1.95 0.3 0
1.95 0.25 0
2 0.25 0
1.95 0.3 0
2 0.3 0
0 0.3 0
0.05 0.3 0
0 0.35 0
0.05 0.35 0
0.05 0.3 0
0.1 0.3 0
0.05 0.35 0
0.1 0.35 0
0.1 0.3 0
0.15 0.3 0
0.1 0.35 0
0.15 0.35 0
0.15 0.3 0
0.2 0.3 0
0.15 0.35 0
0.2 0.35 0
0.2 0.3 0
0.25 0.3 0
0.2 0.35 0
0.25 0.35 0
0.6 0.3 0
0.65 0.3 0
0.6 0.35 0
0.65 0.35 0
1.2 0.3 0
1.25 0.3 0
1.2 0.35 0
1.25 0.35 0
1.25 0.3 0
1.3 0.3 0
1.25 0.35 0
1.3 0.35 0
1.3 0.3 0
1.35 0.3 0
1.3 0.35 0
1.35 0.35 0
1.35 0.3 0
1.4 0.3 0
1.35 0.35 0
1.4 0.35 0
0 0.35 0
0.05 0.35 0
0 0.4 0
0.05 0.4 0
0.05 0.35 0
0.1 0.35 0
0.05 0.4 0
0.1 0.4 0
0.1 0.35 0
0.15 0.35 0
0.1 0.4 0
0.15 0.4 0
0.15 0.35 0
0.2 0.35 0
0.15 0.4 0
0.2 0.4 0
0.2 0.35 0
0.25 0.35 0
0.2 0.4 0
0.25 0.4 0
0.25 0.35 0
0.3 0.35 0
0.25 0.4 0
0.3 0.4 0
0.3 0.35 0
0.35 0.35 0
0.3 0.4 0
0.35 0.4 0
0.7 0.35 0
0.75 0.35 0
0.7 0.4 0
0.75 0.4 0
1.2 0.35 0
1.25 0.35 0
1.2 0.4 0
1.25 0.4 0
1.25 0.35 0
1.3 0.35 0
1.25 0.4 0
1.3 0.4 0
1.3 0.35 0
1.35 0.35 0
1.3 0.4 0
1.35 0.4 0
1.35 0.35 0
1.4 0.35 0
1.35 0.4 0
1.4 0.4 0
1.4 0.35 0
1.45 0.35 0
1.4 0.4 0
1.45 0.4 0
1.45 0.35 0
1.5 0.35 0
1.45 0.4 0
1.5 0.4 0
0 0.4 0
0.05 0.4 0
0 0.45 0
0.05 0.45 0
0.05 0.4 0
0.1 0.4 0
0.05 0.45 0
0.1 0.45 0
0.1 0.4 0
0.15 0.4 0
0.1 0.45 0
0.15 0.45 0
0.15 0.4 0
0.2 0.4 0
0.15 0.45 0
0.2 0.45 0
0.2 0.4 0
0.25 0.4 0
0.2 0.45 0
0.25 0.45 0
0.25 0.4 0
0.3 0.4 0
0.25 0.45 0
0.3 0.45 0
0.3 0.4 0
0.35 0.4 0
0.3 0.45 0
0.35 0.45 0
0.35 0.4 0
0.4 0.4 0
0.35 0.45 0
0.4 0.45 0
0.4 0.4 0
0.45 0.4 0
0.4 0.45 0
0.45 0.45 0
0.75 0.4 0
0.8 0.4 0
0.75 0.45 0
0.8 0.45 0
0.8 0.4 0
0.85 0.4 0
0.8 0.45 0
0.85 0.45 0
0.85 0.4 0
0.9 0.4 0
0.85 0.45 0
0.9 0.45 0
1.15 0.4 0
1.2 0.4 0
1.15 0.45 0
1.2 0.45 0
1.2 0.4 0
1.25 0.4 0
1.2 0.45 0
1.25 0.45 0
1.25 0.4 0
1.3 0.4 0
1.25 0.45 0
1.3 0.45 0
1.3 0.4 0
1.35 0.4 0
1.3 0.45 0
1.35 0.45 0
1.35 0.4 0
1.4 0.4 0
1.35 0.45 0
1.4 0.45 0
1.4 0.4 0
1.45 0.4 0
1.4 0.45 0
1.45 0.45 0
1.45 0.4 0
1.5 0.4 0
1.45 0.45 0
1.5 0.45 0
1.5 0.4 0
1.55 0.4 0
1.5 0.45 0
1.55 0.45 0
1.55 0.4 0
1.6 0.4 0
1.55 0.45 0
1.6 0.45 0
0 0.45 0
0.05 0.45 0
0 0.5 0
0.05 0.5 0
0.05 0.45 0
0.1 0.45 0
0.05 0.5 0
0.1 0.5 0
0.1 0.45 0
0.15 0.45 0
0.1 0.5 0
0.15 0.5 0
0.15 0.45 0
0.2 0.45 0
0.15 0.5 0
0.2 0.5 0
0.2 0.45 0
0.25 0.45 0
0.2 0.5 0
0.25 0.5 0
0.25 0.45 0
0.3 0.45 0
0.25 0.5 0
0.3 0.5 0
0.3 0.45 0
0.35 0.45 0
0.3 0.5 0
0.35 0.5 0
0.35 0.45 0
0.4 0.45 0
0.35 0.5 0
0.4 0.5 0
0.4 0.45 0
0.45 0.45 0
0.4 0.5 0
0.45 0.5 0
0.45 0.45 0
0.5 0.45 0
0.45 0.5 0
0.5 0.5 0
0.5 0.45 0
0.55 0.45 0
0.5 0.5 0
0.55 0.5 0
0.8 0.45 0
0.85 0.45 0
0.8 0.5 0
0.85 0.5 0
0.85 0.45 0
0.9 0.45 0
0.85 0.5 0
0.9 0.5 0
0.9 0.45 0
0.95 0.45 0
0.9 0.5 0
0.95 0.5 0
0.95 0.45 0
1 0.45 0
0.95 0.5 0
1 0.5 0
1.15 0.45 0
1.2 0.45 0
1.15 0.5 0
1.2 0.5 0
1.2 0.45 0
1.25 0.45 0
1.2 0.5 0
1.25 0.5 0
1.25 0.45 0
1.3 0.45 0
1.25 0.5 0
1.3 0.5 0
1.3 0.45 0
1.35 0.45 0
1.3 0.5 0
1.35 0.5 0
1.35 0.45 0
1.4 0.45 0
1.35 0.5 0
1.4 0.5 0
1.4 0.45 0
1.45 0.45 0
1.4 0.5 0
1.45 0.5 0
1.45 0.45 0
1.5 0.45 0
1.45 0.5 0
1.5 0.5 0
1.5 0.45 0
1.55 0.45 0
1.5 0.5 0
1.55 0.5 0
1.55 0.45 0
1.6 0.45 0
1.55 0.5 0
1.6 0.5 0
1.6 0.45 0
1.65 0.45 0
1.6 0.5 0
1.65 0.5 0
1.9 0.45 0
1.95 0.45 0
1.9 0.5 0
1.95 0.5 0
0 0.5 0
0.05 0.5 0
0 0.55 0
0.05 0.55 0
0.05 0.5 0
0.1 0.5 0
0.05 0.55 0
0.1 0.55 0
0.1 0.5 0
0.15 0.5 0
0.1 0.55 0
0.15 0.55 0
0.15 0.5 0
0.2 0.5 0
0.15 0.55 0
0.2 0.55 0
0.2 0.5 0
0.25 0.5 0
0.2 0.55 0
0.25 0.55 0
0.25 0.5 0
0.3 0.5 0
0.25 0.55 0
0.3 0.55 0
0.3 0.5 0
0.35 0.5 0
0.3 0.55 0
0.35 0.55 0
0.35 0.5 0
0.4 0.5 0
0.35 0.55 0
0.4 0.55 0
0.4 0.5 0
0.45 0.5 0
0.4 0.55 0
0.45 0.55 0
0.45 0.5 0
0.5 0.5 0
0.45 0.55 0
0.5 0.55 0
0.5 0.5 0
0.55 0.5 0
0.5 0.55 0
0.55 0.55 0
0.8 0.5 0
0.85 0.5 0
0.8 0.55 0
0.85 0.55 0
0.85 0.5 0
0.9 0.5 0
0.85 0.55 0
0.9 0.55 0
0.9 0.5 0
0.95 0.5 0
0.9 0.55 0
0.95 0.55 0
0.95 0.5 0
1 0.5 0
0.95 0.55 0
1 0.55 0
1.15 0.5 0
1.2 0.5 0
1.15 0.55 0
1.2 0.55 0
1.2 0.5 0
1.25 0.5 0
1.2 0.55 0
1.25 0.55 0
1.25 0.5 0
1.3 0.5 0
1.25 0.55 0
1.3 0.55 0
1.3 0.5 0
1.35 0.5 0
1.3 0.55 0
1.35 0.55 0
1.35 0.5 0
1.4 0.5 0
1.35 0.55 0
1.4 0.55 0
1.4 0.5 0
1.45 0.5 0
1.4 0.55 0
1.45 0.55 0
1.45 0.5 0
1.5 0.5 0
1.45 0.55 0
1.5 0.55 0
1.5 0.5 0
1.55 0.5 0
1.5 0.55 0
1.55 0.55 0
1.55 0.5 0
1.6 0.5 0
1.55 0.55 0
1.6 0.55 0
1.6 0.5 0
1.65 0.5 0
1.6 0.55 0
1.65 0.55 0
1.9 0.5 0
1.95 0.5 0
1.9 0.55 0
1.95 0.55 0
0 0.55 0
0.05 0.55 0
0 0.6 0
0.05 0.6 0
0.05 0.55 0
0.1 0.55 0
0.05 0.6 0
0.1 0.6 0
0.1 0.55 0
0.15 0.55 0
0.1 0.6 0
0.15 0.6 0
0.15 0.55 0
0.2 0.55 0
0.15 0.6 0
0.2 0.6 0
0.2 0.55 0
0.25 0.55 0
0.2 0.6 0
0.25 0.6 0
0.25 0.55 0
0.3 0.55 0
0.25 0.6 0
0.3 0.6 0
0.3 0.55 0
0.35 0.55 0
0.3 0.6 0
0.35 0.6 0
0.35 0.55 0
0.4 0.55 0
0.35 0.6 0
0.4 0.6 0
0.4 0.55 0
0.45 0.55 0
0.4 0.6 0
0.45 0.6 0
0.75 0.55 0
0.8 0.55 0
0.75 0.6 0
0.8 0.6 0
0.8 0.55 0
0.85 0.55 0
0.8 0.6 0
0.85 0.6 0
0.85 0.55 0
0.9 0.55 0
0.85 0.6 0
0.9 0.6 0
1.15 0.55 0
1.2 0.55 0
1.15 0.6 0
1.2 0.6 0
1.2 0.55 0
1.25 0.55 0
1.2 0.6 0
1.25 0.6 0
1.25 0.55 0
1.3 0.55 0
1.25 0.6 0
1.3 0.6 0
1.3 0.55 0
1.35 0.55 0
1.3 0.6 0
1.35 0.6 0
1.35 0.55 0
1.4 0.55 0
1.35 0.6 0
1.4 0.6 0
1.4 0.55 0
1.45 0.55 0
1.4 0.6 0
1.45 0.6 0
1.45 0.55 0
1.5 0.55 0
1.45 0.6 0
1.5 0.6 0
1.5 0.55 0
1.55 0.55 0
1.5 0.6 0
1.55 0.6 0
1.55 0.55 0
1.6 0.55 0
1.55 0.6 0
1.6 0.6 0
0 0.6 0
0.05 0.6 0
0 0.65 0
0.05 0.65 0
0.05 0.6 0
0.1 0.6 0
0.05 0.65 0
0.1 0.65 0
0.1 0.6 0
0.15 0.6 0
0.1 0.65 0
0.15 0.65 0
0.15 0.6 0
0.2 0.6 0
0.15 0.65 0
0.2 0.65 0
0.2 0.6 0
0.25 0.6 0
0.2 0.65 0
0.25 0.65 0
0.25 0.6 0
0.3 0.6 0
0.25 0.65 0
0.3 0.65 0
0.3 0.6 0
0.35 0.6 0
0.3 0.65 0
0.35 0.65 0
0.7 0.6 0
0.75 0.6 0
0.7 0.65 0
0.75 0.65 0
1.2 0.6 0
1.25 0.6 0
1.2 0.65 0
1.25 0.65 0
1.25 0.6 0
1.3 0.6 0
1.25 0.65 0
1.3 0.65 0
1.3 0.6 0
1.35 0.6 0
1.3 0.65 0
1.35 0.65 0
1.35 0.6 0
1.4 0.6 0
1.35 0.65 0
1.4 0.65 0
1.4 0.6 0
1.45 0.6 0
1.4 0.65 0
1.45 0.65 0
1.45 0.6 0
1.5 0.6 0
1.45 0.65 0
1.5 0.65 0
0 0.65 0
0.05 0.65 0
0 0.7 0
0.05 0.7 0
0.05 0.65 0
0.1 0.65 0
0.05 0.7 0
0.1 0.7 0
0.1 0.65 0
0.15 0.65 0
0.1 0.7 0
0.15 0.7 0
0.15 0.65 0
0.2 0.65 0
0.15 0.7 0
0.2 0.7 0
0.2 0.65 0
0.25 0.65 0
0.2 0.7 0
0.25 0.7 0
0.6 0.65 0
0.65 0.65 0
0.6 0.7 0
0.65 0.7 0
1.2 0.65 0
1.25 0.65 0
1.2 0.7 0
1.25 0.7 0
1.25 0.65 0
1.3 0.65 0
1.25 0.7 0
1.3 0.7 0
1.3 0.65 0
1.35 0.65 0
1.3 0.7 0
1.35 0.7 0
[...]
POINT_DATA 41912
SCALARS x_displacement double 1
LOOKUP_TABLE default
0 1.32332 0 0.774635 1.32332 2.33193 0.774635 1.59447 2.33193 3.17865 1.59447 2.32189 3.17865 3.90974 2.32189 2.97038 3.90974 4.55394 2.97038 3.5539 4.55394 5.14106 3.5539 4.08659 5.14106 5.69871 4.08659 4.58769 5.69871 6.24286 4.58769 5.0767 6.24286 6.78025 5.0767 5.55935 6.78025 7.31335 5.55935 6.042 7.31335 7.84524 6.042 6.52509 7.84524 8.37735 6.52509 7.00736 8.37735 8.90926 7.00736 7.49065 8.90926 9.43218 7.49065 7.97821 9.43218 9.93816 7.97821 8.46521 9.93816 10.4307 8.46521 8.95619 10.4307 10.9198 8.95619 9.44987 10.9198 11.408 9.44987 9.94365 11.408 11.8959 9.94365 10.4363 11.8959 12.3908 10.4363 10.9241 12.3908 12.9054 10.9241 11.4069 12.9054 13.4568 11.4069 11.8748 13.4568 14.0479 11.8748 12.3321 14.0479 14.6249 12.3321 12.7776 14.6249 15.0739 12.7776 13.1717 16.6734 17.0272 14.2847 14.8809 17.0272 17.3879 14.8809 15.1187 17.3879 17.6258 15.1187 15.4067 17.6258 17.8271 15.4067 15.6469 17.8271 17.9796 15.6469 15.8279 17.9796 18.0759 15.8279 15.9596 18.0759 18.122 15.9596 16.0484 18.122 18.1297 16.0484 16.1014 18.1297 18.1161 16.1014 16.1258 18.1161 18.1006 16.1258 16.1328 18.1006 18.0954 16.1328 16.1351 0 0.774635 0 0.531397 0.774635 1.59447 0.531397 1.08846 1.59447 2.32189 1.08846 1.64917 2.32189 2.97038 1.64917 2.17718 2.97038 3.5539 2.17718 2.66861 3.5539 4.08659 2.66861 3.11734 4.08659 4.58769 3.11734 3.51808 12.3321 12.7776 10.711 11.0666 12.7776 13.1717 11.0666 11.3863 15.1187 15.4067 12.9949 13.331 15.4067 15.6469 13.331 13.585 15.6469 15.8279 13.585 13.7845 15.8279 15.9596 13.7845 13.9372 15.9596 16.0484 13.9372 14.0571 16.0484 16.1014 14.0571 14.1361 16.1014 16.1258 14.1361 14.1764 16.1258 16.1328 14.1764 14.1895 16.1328 16.1351 14.1895 14.1943 1.64917 2.17718 1.05537 1.4713 2.17718 2.66861 1.4713 1.87642 2.66861 3.11734 1.87642 2.25007 3.11734 3.51808 2.25007 2.57509 13.585 13.7845 11.6137 11.811 13.7845 13.9372 11.811 11.999 13.9372 14.0571 11.999 12.1484 14.0571 14.1361 12.1484 12.2469 14.1361 14.1764 12.2469 12.2946 14.1764 14.1895 12.2946 12.3086 14.1895 14.1943 12.3086 12.31 2.25007 2.57509 1.4706 1.79156 11.999 12.1484 10.1455 10.3183 12.1484 12.2469 10.3183 10.433 12.2469 12.2946 10.433 10.5014 12.2946 12.3086 10.5014 10.5191 12.3086 12.31 10.5191 10.5105 2.104 2.41051 1.36746 1.67724 5.16751 5.86314 5.26854 4.80152 5.86314 6.25768 4.80152 5.20026 6.25768 6.65443 5.20026 5.55681 6.65443 6.98448 5.55681 5.94544 10.3183 10.433 8.51707 8.71592 10.433 10.5014 8.71592 8.81935 10.5014 10.5191 8.81935 8.84199 10.5191 10.5105 8.84199 8.81558 0 -0.340735 0 -0.217971 -0.340735 -1.47705 -0.217971 -0.185667 -1.47705 -0.255102 -0.185667 -0.379629 5.55681 5.94544 4.50372 4.86848 5.97098 5.77953 4.91214 4.89311 5.77953 6.15352 4.89311 4.97816 8.81935 8.84199 7.25759 7.28537 8.84199 8.81558 7.28537 7.21416 0 -0.217971 0 -0.0255826 -0.217971 -0.185667 -0.0255826 -0.0872091 -0.185667 -0.379629 -0.0872091 -0.11223 -0.379629 -0.206516 -0.11223 -0.146455 -0.206516 -0.133716 -0.146455 -0.100202 1.86801 2.17513 1.1419 1.43794 4.9351 4.91214 3.52357 3.59768 4.91214 4.89311 3.59768 3.65716 4.89311 4.97816 3.65716 3.67594 4.97816 5.04757 3.67594 3.66066 0 -0.0255826 0 -0.00892082 -0.0255826 -0.0872091 -0.00892082 -0.0197106 -0.0872091 -0.11223 -0.0197106 -0.0510691 -0.11223 -0.146455 -0.0510691 -0.0742063 -0.146455 -0.100202 -0.0742063 -0.0979472 -0.100202 -0.0748538 -0.0979472 -0.11984 -0.0748538 -0.0527953 -0.11984 -0.170522 1.72404 2.01599 0.981324 1.22796 3.52357 3.59768 2.29023 2.31969 3.59768 3.65716 2.31969 2.38438 3.65716 3.67594 2.38438 2.40503 3.67594 3.66066 2.40503 2.38863 3.66066 3.59304 2.38863 2.33586 3.59304 3.13631 2.33586 2.46262 0 -0.00892082 0 -0.000670846 -0.00892082 -0.0197106 -0.000670846 -0.0062613 -0.0197106 -0.0510691 -0.0062613 -0.018378 -0.0510691 -0.0742063 -0.018378 -0.0370317 -0.0742063 -0.0979472 -0.0370317 -0.05715 -0.0979472 -0.11984 -0.05715 -0.0862001 -0.11984 -0.170522 -0.0862001 -0.143921 -0.170522 -0.312233 -0.143921 -0.259436 -0.312233 -1.07036 -0.259436 -0.20688 1.22796 1.47918 0.507449 0.691934 1.47918 1.71754 0.691934 0.835282 1.71754 1.9264 0.835282 0.937338 2.22975 2.29023 0.993294 1.11266 2.29023 2.31969 1.11266 1.14789 2.31969 2.38438 1.14789 1.17125 2.38438 2.40503 1.17125 1.18564 2.40503 2.38863 1.18564 1.18369 2.38863 2.33586 1.18369 1.20414 2.33586 2.46262 1.20414 1.19875 2.46262 2.40794 1.19875 1.16673 2.40794 2.39924 1.16673 1.03132 0 -0.000670846 0 2.76584e-11 -0.000670846 -0.0062613 2.76584e-11 5.67124e-11 -0.0062613 -0.018378 5.67124e-11 7.87845e-11 -0.018378 -0.0370317 7.87845e-11 9.3751e-11 -0.0370317 -0.05715 9.3751e-11 1.02346e-10 -0.05715 -0.0862001 1.02346e-10 1.03969e-10 -0.0862001 -0.143921 1.03969e-10 9.5564e-11 -0.143921 -0.259436 9.5564e-11 7.4345e-11 -0.259436 -0.20688 7.4345e-11 4.88029e-11 -0.20688 -0.302176 4.88029e-11 2.85955e-11 -0.302176 -0.281108 2.85955e-11 1.94369e-11 0.691934 0.835282 6.55066e-13 6.52604e-13 0.835282 0.937338 6.52604e-13 7.90801e-13 0.937338 0.983793 7.90801e-13 1.0914e-12 0.983793 0.965082 1.0914e-12 1.49282e-12 0.993294 1.11266 3.95532e-10 -2.94472e-10 1.11266 1.14789 -2.94472e-10 -2.29694e-11 1.14789 1.17125 -2.29694e-11 1.55149e-10 1.17125 1.18564 1.55149e-10 1.05933e-09 1.18564 1.18369 1.05933e-09 8.27605e-10 1.18369 1.20414 8.27605e-10 7.69884e-11 1.20414 1.19875 7.69884e-11 -2.52686e-10 1.19875 1.16673 -2.52686e-10 -2.59498e-10 1.16673 1.03132 -2.59498e-10 -1.30335e-10 1.03132 1.10032 -1.30335e-10 8.11923e-10 1.89183 2.10329 7.03373e-13 3.69834e-13 0 2.76584e-11 0 0.000670846 2.76584e-11 5.67124e-11 0.000670846 0.0062613 5.67124e-11 7.87845e-11 0.0062613 0.018378 7.87845e-11 9.3751e-11 0.018378 0.0370317 9.3751e-11 1.02346e-10 0.0370317 0.05715 1.02346e-10 1.03969e-10 0.05715 0.0862001 1.03969e-10 9.5564e-11 0.0862001 0.143921 9.5564e-11 7.4345e-11 0.143921 0.259436 7.4345e-11 4.88029e-11 0.259436 0.20688 4.88029e-11 2.85955e-11 0.20688 0.302176 2.85955e-11 1.94369e-11 0.302176 0.281108 6.55066e-13 6.52604e-13 -0.691934 -0.835282 6.52604e-13 7.90801e-13 -0.835282 -0.937338 7.90801e-13 1.0914e-12 -0.937338 -0.983793 1.0914e-12 1.49282e-12 -0.983793 -0.965082 3.95532e-10 -2.94472e-10 -0.993294 -1.11266 -2.94472e-10 -2.29694e-11 -1.11266 -1.14789 -2.29694e-11 1.55149e-10 -1.14789 -1.17125 1.55149e-10 1.05933e-09 -1.17125 -1.18564 1.05933e-09 8.27605e-10 -1.18564 -1.18369 8.27605e-10 7.69884e-11 -1.18369 -1.20414 7.69884e-11 -2.52686e-10 -1.20414 -1.19875 -2.52686e-10 -2.59498e-10 -1.19875 -1.16673 -2.59498e-10 -1.30335e-10 -1.16673 -1.03132 -1.30335e-10 8.11923e-10 -1.03132 -1.10032 7.03373e-13 3.69834e-13 -1.89183 -2.10329 0 0.000670846 0 0.00892082 0.000670846 0.0062613 0.00892082 0.0197106 0.0062613 0.018378 0.0197106 0.0510691 0.018378 0.0370317 0.0510691 0.0742063 0.0370317 0.05715 0.0742063 0.0979472 0.05715 0.0862001 0.0979472 0.11984 0.0862001 0.143921 0.11984 0.170522 0.143921 0.259436 0.170522 0.312233 0.259436 0.20688 0.312233 1.07036 -0.507449 -0.691934 -1.22796 -1.47918 -0.691934 -0.835282 -1.47918 -1.71754 -0.835282 -0.937338 -1.71754 -1.9264 -0.993294 -1.11266 -2.22975 -2.29023 -1.11266 -1.14789 -2.29023 -2.31969 -1.14789 -1.17125 -2.31969 -2.38438 -1.17125 -1.18564 -2.38438 -2.40503 -1.18564 -1.18369 -2.40503 -2.38863 -1.18369 -1.20414 -2.38863 -2.33586 -1.20414 -1.19875 -2.33586 -2.46262 -1.19875 -1.16673 -2.46262 -2.40794 -1.16673 -1.03132 -2.40794 -2.39924 0 0.00892082 0 0.0255826 0.00892082 0.0197106 0.0255826 0.0872091 0.0197106 0.0510691 0.0872091 0.11223 0.0510691 0.0742063 0.11223 0.146455 0.0742063 0.0979472 0.146455 0.100202 0.0979472 0.11984 0.100202 0.0748538 0.11984 0.170522 0.0748538 0.0527953 -0.981324 -1.22796 -1.72404 -2.01599 -2.29023 -2.31969 -3.52357 -3.59768 -2.31969 -2.38438 -3.59768 -3.65716 -2.38438 -2.40503 -3.65716 -3.67594 -2.40503 -2.38863 -3.67594 -3.66066 -2.38863 -2.33586 -3.66066 -3.59304 -2.33586 -2.46262 -3.59304 -3.13631 0 0.0255826 0 0.217971 0.0255826 0.0872091 0.217971 0.185667 0.0872091 0.11223 0.185667 0.379629 0.11223 0.146455 0.379629 0.206516 0.146455 0.100202 0.206516 0.133716 -1.1419 -1.43794 -1.86801 -2.17513 -3.52357 -3.59768 -4.9351 -4.91214 -3.59768 -3.65716 -4.91214 -4.89311 -3.65716 -3.67594 -4.89311 -4.97816 -3.67594 -3.66066 -4.97816 -5.04757 0 0.217971 0 0.340735 0.217971 0.185667 0.340735 1.47705 0.185667 0.379629 1.47705 0.255102 -4.50372 -4.86848 -5.55681 -5.94544 -4.91214 -4.89311 -5.97098 -5.77953 -4.89311 -4.97816 -5.77953 -6.15352 -7.25759 -7.28537 -8.81935 -8.84199 -7.28537 -7.21416 -8.84199 -8.81558 -1.36746 -1.67724 -2.104 -2.41051 -5.26854 -4.80152 -5.16751 -5.86314 -4.80152 -5.20026 -5.86314 -6.25768 -5.20026 -5.55681 -6.25768 -6.65443 -5.55681 -5.94544 -6.65443 -6.98448 -8.51707 -8.71592 -10.3183 -10.433 -8.71592 -8.81935 -10.433 -10.5014 -8.81935 -8.84199 -10.5014 -10.5191 -8.84199 -8.81558 -10.5191 -10.5105 -1.4706 -1.79156 -2.25007 -2.57509 -10.1455 -10.3183 -11.999 -12.1484 -10.3183 -10.433 -12.1484 -12.2469 -10.433 -10.5014 -12.2469 -12.2946 -10.5014 -10.5191 -12.2946 -12.3086 -10.5191 -10.5105 -12.3086 -12.31 -1.05537 -1.4713 -1.64917 -2.17718 -1.4713 -1.87642 -2.17718 -2.66861 -1.87642 -2.25007 -2.66861 -3.11734 -2.25007 -2.57509 -3.11734 -3.51808 -11.6137 -11.811 -13.585 -13.7845 -11.811 -11.999 -13.7845 -13.9372 -11.999 -12.1484 -13.9372 -14.0571 -12.1484 -12.2469 -14.0571 -14.1361 -12.2469 -12.2946 -14.1361 -14.1764 -12.2946 -12.3086 -14.1764 -14.1895 -12.3086 -12.31 -14.1895 -14.1943 0 -0.531397 0 -0.774635 -0.531397 -1.08846 -0.774635 -1.59447 -1.08846 -1.64917 -1.59447 -2.32189 -1.64917 -2.17718 -2.32189 -2.97038 -2.17718 -2.66861 -2.97038 -3.5539 -2.66861 -3.11734 -3.5539 -4.08659 -3.11734 -3.51808 -4.08659 -4.58769 -10.711 -11.0666 -12.3321 -12.7776 -11.0666 -11.3863 -12.7776 -13.1717 -12.9949 -13.331 -15.1187 -15.4067 -13.331 -13.585 -15.4067 -15.6469 -13.585 -13.7845 -15.6469 -15.8279 -13.7845 -13.9372 -15.8279 -15.9596 -13.9372 -14.0571 -15.9596 -16.0484 -14.0571 -14.1361 -16.0484 -16.1014 -14.1361 -14.1764 -16.1014 -16.1258 -14.1764 -14.1895 -16.1258 -16.1328 -14.1895 -14.1943 -16.1328 -16.1351 0 -0.774635 0 -1.32332 -0.774635 -1.59447 -1.32332 -2.33193 -1.59447 -2.32189 -2.33193 -3.17865 -2.32189 -2.97038 -3.17865 -3.90974 -2.97038 -3.5539 -3.90974 -4.55394 -3.5539 -4.08659 -4.55394 -5.14106 -4.08659 -4.58769 -5.14106 -5.69871 -4.58769 -5.0767 -5.69871 -6.24286 -5.0767 -5.55935 -6.24286 -6.78025 -5.55935 -6.042 -6.78025 -7.31335 -6.042 -6.52509 -7.31335 -7.84524 -6.52509 -7.00736 -7.84524 -8.37735 -7.00736 -7.49065 -8.37735 -8.90926 -7.49065 -7.97821 -8.90926 -9.43218 -7.97821 -8.46521 -9.43218 -9.93816 -8.46521 -8.95619 -9.93816 -10.4307 -8.95619 -9.44987 -10.4307 -10.9198 -9.44987 -9.94365 -10.9198 -11.408 -9.94365 -10.4363 -11.408 -11.8959 -10.4363 -10.9241 -11.8959 -12.3908 -10.9241 -11.4069 -12.3908 -12.9054 -11.4069 -11.8748 -12.9054 -13.4568 -11.8748 -12.3321 -13.4568 -14.0479 -12.3321 -12.7776 -14.0479 -14.6249 -12.7776 -13.1717 -14.6249 -15.0739 -14.2847 -14.8809 -16.6734 -17.0272 -14.8809 -15.1187 -17.0272 -17.3879 -15.1187 -15.4067 -17.3879 -17.6258 -15.4067 -15.6469 -17.6258 -17.8271 -15.6469 -15.8279 -17.8271 -17.9796 -15.8279 -15.9596 -17.9796 -18.0759 -15.9596 -16.0484 -18.0759 -18.122 -16.0484 -16.1014 -18.122 -18.1297 -16.1014 -16.1258 -18.1297 -18.1161 -16.1258 -16.1328 -18.1161 -18.1006 -16.1328 -16.1351 -18.1006 -18.0954 15.9673 16.1896 14.8459 14.9993 5.55935 5.80068 4.94916 5.17759 5.80068 6.042 5.17759 5.40675 4.94916 5.17759 4.33789 4.55468 5.17759 5.40675 4.55468 4.77156 6.042 6.28355 5.40675 5.63605 6.28355 6.52509 5.63605 5.86531 5.40675 5.63605 4.77156 4.98853 5.63605 5.86531 4.98853 5.20563 6.52509 6.76622 5.86531 6.09451 6.76622 7.00736 6.09451 6.32343 5.86531 6.09451 5.20563 5.4229 6.09451 6.32343 5.4229 5.64033 7.00736 7.249 6.32343 6.55192 7.249 7.49065 6.55192 6.78117 6.32343 6.55192 5.64033 5.85756 6.55192 6.78117 5.85756 6.07278 7.49065 7.73443 6.78117 7.01402 7.73443 7.97821 7.01402 7.2505 7.97821 8.22171 7.2505 7.48713 8.22171 8.46521 7.48713 7.72777 8.46521 8.7107 7.72777 7.97254 8.7107 8.95619 7.97254 8.21971 8.95619 9.20303 8.21971 8.46737 9.20303 9.44987 8.46737 8.71526 9.44987 9.69676 8.71526 8.9632 9.69676 9.94365 8.9632 9.21119 9.94365 10.19 9.21119 9.45919 10.19 10.4363 9.45919 9.70652 10.4363 10.6802 9.70652 9.95158 10.6802 10.9241 9.95158 10.1912 10.9241 11.1655 10.1912 10.4283 11.1655 11.4069 10.4283 10.6603 11.4069 11.6408 10.6603 10.8824 11.6408 11.8748 10.8824 11.0915 10.8824 11.0915 10.1383 10.341 14.2847 14.5828 13.392 13.2973 14.5828 14.8809 13.2973 13.5878 0 0.265699 0 0.205473 0.265699 0.531397 0.205473 0.419795 0.531397 0.809928 0.419795 0.641167 0.809928 1.08846 0.641167 0.873657 0.641167 0.873657 0.460893 0.653645 11.3863 11.5204 10.4666 10.5767 11.5204 11.6428 10.5767 10.6903 12.9949 13.1629 11.9902 12.1809 13.1629 13.331 12.1809 12.4336 12.1809 12.4336 11.2409 11.1703 0 -0.0839285 0 -0.170546 1.05537 1.26334 0.761693 0.945933 1.26334 1.4713 0.945933 1.13196 3.9006 4.07932 3.36277 3.4195 4.07932 4.27138 3.4195 3.61419 8.41626 8.74666 7.87888 7.67254 7.87888 7.67254 7.37928 7.82104 9.98545 10.119 9.03267 9.17592 10.119 10.2515 9.17592 9.31393 9.85168 9.98375 8.92822 9.06187 11.4383 11.6137 10.6212 10.5027 -0.162118 0.19373 -1.47705 -0.866078 0.19373 0.0217087 -0.866078 -0.255102 1.30787 1.4706 0.940193 1.10131 2.34659 2.49681 1.98189 2.1333 3.70043 3.81627 3.2287 3.35899 3.81627 4.25437 3.35899 3.50529 7.08484 6.98466 5.8736 5.97098 6.7061 7.15957 5.77953 5.96653 7.15957 7.09284 5.96653 6.15352 10.09 10.1455 9.16494 9.42685 -0.27723 0.00767613 -0.206516 -0.170116 0.00767613 0.112073 -0.170116 -0.133716 1.21164 1.36746 0.849309 1.00338 2.23172 2.38523 1.86801 2.02157 2.38523 2.5459 2.02157 2.17513 3.67581 5.26854 3.53151 3.06725 5.26854 5.03503 3.06725 3.82265 5.03503 4.80152 3.82265 4.07164 5.94544 6.14896 5.40696 5.59248 5.40696 5.59248 4.86848 4.97485 5.64701 5.64271 4.9591 4.95911 5.79183 5.86818 5.04757 5.11556 7.22696 7.36256 6.31097 6.4492 8.51707 8.61649 7.66258 7.81607 8.61649 8.71592 7.81607 7.90854 -0.0105112 0.0351949 -0.0748538 -0.0638246 0.0351949 0.0495832 -0.0638246 -0.0527953 1.10027 1.25428 0.735512 0.890992 2.10781 2.26124 1.72404 1.87002 2.26124 2.41837 1.87002 2.01599 2.41837 2.57942 2.01599 2.16719 4.21556 4.50372 3.52789 3.91522 4.97749 4.9351 4.08784 4.22934 4.08784 4.22934 3.6135 3.52357 4.61195 4.43501 3.13631 3.7864 5.94807 6.08332 5.04088 5.17787 5.72121 5.85814 4.81663 4.95009 7.25759 7.27148 6.52967 6.54934 7.27148 7.28537 6.54934 6.55218 -0.191133 -0.157571 -0.312233 -0.691294 -0.157571 0.147144 -0.691294 -1.07036 0.147144 -0.0821014 -1.07036 -0.304632 0.990187 1.1419 0.629986 0.785611 2.17175 2.30543 1.71754 1.82197 2.30543 2.43392 1.82197 1.9264 3.61249 3.60885 2.93778 2.93289 2.93778 2.93289 2.25087 2.25756 3.05582 3.11302 2.40794 2.40359 3.11302 3.1674 2.40359 2.39924 4.4394 4.5787 3.51265 3.64521 5.76839 5.72596 4.92407 4.91021 -0.12545 -0.0637291 -0.281108 -0.311354 0.855051 0.981324 0.513287 0.636206 2.27677 2.22975 1.44415 1.61152 1.44415 1.61152 0.960502 0.993294 1.52864 1.78252 1.10032 1.11045 3.13777 3.26053 2.2454 2.36293 -0.116596 -0.1324 4.06023e-11 -1.42024e-11 0.965082 0.962941 0.482541 0.440078 0.482541 0.440078 1.49282e-12 1.59174e-12 0.567205 0.545875 4.61575e-10 -1.73167e-10 4.06023e-11 -1.42024e-11 0.116596 0.1324 1.49282e-12 1.59174e-12 -0.482541 -0.440078 -0.482541 -0.440078 -0.965082 -0.962941 4.61575e-10 -1.73167e-10 -0.567205 -0.545875 0.281108 0.311354 0.12545 0.0637291 -0.513287 -0.636206 -0.855051 -0.981324 -0.960502 -0.993294 -1.44415 -1.61152 -1.44415 -1.61152 -2.27677 -2.22975 -1.10032 -1.11045 -1.52864 -1.78252 -2.2454 -2.36293 -3.13777 -3.26053 0.312233 0.691294 0.191133 0.157571 0.691294 1.07036 0.157571 -0.147144 1.07036 0.304632 -0.147144 0.0821014 -0.629986 -0.785611 -0.990187 -1.1419 -1.71754 -1.82197 -2.17175 -2.30543 -1.82197 -1.9264 -2.30543 -2.43392 -2.25087 -2.25756 -2.93778 -2.93289 -2.93778 -2.93289 -3.61249 -3.60885 -2.40794 -2.40359 -3.05582 -3.11302 -2.40359 -2.39924 -3.11302 -3.1674 -3.51265 -3.64521 -4.4394 -4.5787 -4.92407 -4.91021 -5.76839 -5.72596 0.0748538 0.0638246 0.0105112 -0.0351949 0.0638246 0.0527953 -0.0351949 -0.0495832 -0.735512 -0.890992 -1.10027 -1.25428 -1.72404 -1.87002 -2.10781 -2.26124 -1.87002 -2.01599 -2.26124 -2.41837 -2.01599 -2.16719 -2.41837 -2.57942 -3.52789 -3.91522 -4.21556 -4.50372 -3.6135 -3.52357 -4.08784 -4.22934 -4.08784 -4.22934 -4.97749 -4.9351 -3.13631 -3.7864 -4.61195 -4.43501 -5.04088 -5.17787 -5.94807 -6.08332 -4.81663 -4.95009 -5.72121 -5.85814 -6.52967 -6.54934 -7.25759 -7.27148 -6.54934 -6.55218 -7.27148 -7.28537 0.206516 0.170116 0.27723 -0.00767613 0.170116 0.133716 -0.00767613 -0.112073 -0.849309 -1.00338 -1.21164 -1.36746 -1.86801 -2.02157 -2.23172 -2.38523 -2.02157 -2.17513 -2.38523 -2.5459 -3.53151 -3.06725 -3.67581 -5.26854 -3.06725 -3.82265 -5.26854 -5.03503 -3.82265 -4.07164 -5.03503 -4.80152 -4.86848 -4.97485 -5.40696 -5.59248 -5.40696 -5.59248 -5.94544 -6.14896 -4.9591 -4.95911 -5.64701 -5.64271 -5.04757 -5.11556 -5.79183 -5.86818 -6.31097 -6.4492 -7.22696 -7.36256 -7.66258 -7.81607 -8.51707 -8.61649 -7.81607 -7.90854 -8.61649 -8.71592 1.47705 0.866078 0.162118 -0.19373 0.866078 0.255102 -0.19373 -0.0217087 -0.940193 -1.10131 -1.30787 -1.4706 -1.98189 -2.1333 -2.34659 -2.49681 -3.2287 -3.35899 -3.70043 -3.81627 -3.35899 -3.50529 -3.81627 -4.25437 -5.8736 -5.97098 -7.08484 -6.98466 -5.77953 -5.96653 -6.7061 -7.15957 -5.96653 -6.15352 -7.15957 -7.09284 -9.16494 -9.42685 -10.09 -10.1455 0 0.170546 0 0.0839285 -0.761693 -0.945933 -1.05537 -1.26334 -0.945933 -1.13196 -1.26334 -1.4713 -3.36277 -3.4195 -3.9006 -4.07932 -3.4195 -3.61419 -4.07932 -4.27138 -7.37928 -7.82104 -7.87888 -7.67254 -7.87888 -7.67254 -8.41626 -8.74666 -9.03267 -9.17592 -9.98545 -10.119 -9.17592 -9.31393 -10.119 -10.2515 -8.92822 -9.06187 -9.85168 -9.98375 -10.6212 -10.5027 -11.4383 -11.6137 0 -0.205473 0 -0.265699 -0.205473 -0.419795 -0.265699 -0.531397 -0.460893 -0.653645 -0.641167 -0.873657 -0.419795 -0.641167 -0.531397 -0.809928 -0.641167 -0.873657 -0.809928 -1.08846 -10.4666 -10.5767 -11.3863 -11.5204 -10.5767 -10.6903 -11.5204 -11.6428 -11.2409 -11.1703 -12.1809 -12.4336 -11.9902 -12.1809 -12.9949 -13.1629 -12.1809 -12.4336 -13.1629 -13.331 -4.33789 -4.55468 -4.94916 -5.17759 -4.55468 -4.77156 -5.17759 -5.40675 -4.94916 -5.17759 -5.55935 -5.80068 -5.17759 -5.40675 -5.80068 -6.042 -4.77156 -4.98853 -5.40675 -5.63605 -4.98853 -5.20563 -5.63605 -5.86531 -5.40675 -5.63605 -6.042 -6.28355 -5.63605 -5.86531 -6.28355 -6.52509 -5.20563 -5.4229 -5.86531 -6.09451 -5.4229 -5.64033 -6.09451 -6.32343 -5.86531 -6.09451 -6.52509 -6.76622 -6.09451 -6.32343 -6.76622 -7.00736 -5.64033 -5.85756 -6.32343 -6.55192 -5.85756 -6.07278 -6.55192 -6.78117 -6.32343 -6.55192 -7.00736 -7.249 -6.55192 -6.78117 -7.249 -7.49065 -6.78117 -7.01402 -7.49065 -7.73443 -7.01402 -7.2505 -7.73443 -7.97821 -7.2505 -7.48713 -7.97821 -8.22171 -7.48713 -7.72777 -8.22171 -8.46521 -7.72777 -7.97254 -8.46521 -8.7107 -7.97254 -8.21971 -8.7107 -8.95619 -8.21971 -8.46737 -8.95619 -9.20303 -8.46737 -8.71526 -9.20303 -9.44987 -8.71526 -8.9632 -9.44987 -9.69676 -8.9632 -9.21119 -9.69676 -9.94365 -9.21119 -9.45919 -9.94365 -10.19 -9.45919 -9.70652 -10.19 -10.4363 -9.70652 -9.95158 -10.4363 -10.6802 -9.95158 -10.1912 -10.6802 -10.9241 -10.1912 -10.4283 -10.9241 -11.1655 -10.4283 -10.6603 -11.1655 -11.4069 -10.1383 -10.341 -10.8824 -11.0915 -10.6603 -10.8824 -11.4069 -11.6408 -10.8824 -11.0915 -11.6408 -11.8748 -13.392 -13.2973 -14.2847 -14.5828 -13.2973 -13.5878 -14.5828 -14.8809 -14.8459 -14.9993 -15.9673 -16.1896 15.0739 15.2202 14.1228 14.274 14.1228 14.274 13.1717 13.3496 16.1896 16.433 14.9993 15.2609 16.433 16.6734 15.2609 15.4791 15.2609 15.4791 14.0747 14.2847 5.0767 5.31803 4.49762 4.72277 5.31803 5.55935 4.72277 4.94916 4.49762 4.72277 3.91482 4.12287 4.72277 4.94916 4.12287 4.33789 11.8748 12.1035 11.0915 11.3014 12.1035 12.3321 11.3014 11.5215 11.0915 11.3014 10.341 10.5315 11.3014 11.5215 10.5315 10.711 13.4964 13.6291 12.5736 