# vtk DataFile Version 3.0
#This file was generated by the deal.II library on 2016/3/9 at 8:35:10
ASCII
DATASET UNSTRUCTURED_GRID

POINTS 6608 double
0.125 0.375 0
0.25 0.375 0
0.125 0.5 0
0.25 0.5 0
1.75 0 0
1.875 0 0
1.75 0.125 0
1.875 0.125 0
1.875 0 0
2 0 0
1.875 0.125 0
2 0.125 0
0.125 0.5 0
0.25 0.5 0
0.125 0.625 0
0.25 0.625 0
1.75 0.875 0
1.875 0.875 0
1.75 1 0
1.875 1 0
1.875 0.875 0
2 0.875 0
1.875 1 0
2 1 0
0.125 0 0
0.1875 0 0
0.125 0.0625 0
0.1875 0.0625 0
0.1875 0 0
0.25 0 0
0.1875 0.0625 0
0.25 0.0625 0
0.25 0 0
0.3125 0 0
0.25 0.0625 0
0.3125 0.0625 0
0.3125 0 0
0.375 0 0
0.3125 0.0625 0
0.375 0.0625 0
0.375 0 0
0.4375 0 0
0.375 0.0625 0
0.4375 0.0625 0
0.4375 0.0625 0
0.5 0.0625 0
0.4375 0.125 0
0.5 0.125 0
0.125 0.3125 0
0.1875 0.3125 0
0.125 0.375 0
0.1875 0.375 0
0.1875 0.3125 0
0.25 0.3125 0
0.1875 0.375 0
0.25 0.375 0
0.25 0.3125 0
0.3125 0.3125 0
0.25 0.375 0
0.3125 0.375 0
0.625 0.4375 0
0.6875 0.4375 0
0.625 0.5 0
0.6875 0.5 0
0.6875 0.4375 0
0.75 0.4375 0
0.6875 0.5 0
0.75 0.5 0
0.75 0.4375 0
0.8125 0.4375 0
0.75 0.5 0
0.8125 0.5 0
1.1875 0 0
1.25 0 0
1.1875 0.0625 0
1.25 0.0625 0
1.25 0 0
1.3125 0 0
1.25 0.0625 0
1.3125 0.0625 0
1.3125 0 0
1.375 0 0
1.3125 0.0625 0
1.375 0.0625 0
1.375 0 0
1.4375 0 0
1.375 0.0625 0
1.4375 0.0625 0
1.4375 0 0
1.5 0 0
1.4375 0.0625 0
1.5 0.0625 0
1.3125 0.3125 0
1.375 0.3125 0
1.3125 0.375 0
1.375 0.375 0
1.5 0 0
1.5625 0 0
1.5 0.0625 0
1.5625 0.0625 0
1.5625 0 0
1.625 0 0
1.5625 0.0625 0
1.625 0.0625 0
1.5625 0.0625 0
1.625 0.0625 0
1.5625 0.125 0
1.625 0.125 0
1.75 0.125 0
1.8125 0.125 0
1.75 0.1875 0
1.8125 0.1875 0
1.8125 0.125 0
1.875 0.125 0
1.8125 0.1875 0
1.875 0.1875 0
0.125 0.625 0
0.1875 0.625 0
0.125 0.6875 0
0.1875 0.6875 0
0.1875 0.625 0
0.25 0.625 0
0.1875 0.6875 0
0.25 0.6875 0
0.25 0.625 0
0.3125 0.625 0
0.25 0.6875 0
0.3125 0.6875 0
0.125 0.9375 0
0.1875 0.9375 0
0.125 1 0
0.1875 1 0
0.1875 0.9375 0
0.25 0.9375 0
0.1875 1 0
0.25 1 0
0.25 0.9375 0
0.3125 0.9375 0
0.25 1 0
0.3125 1 0
0.3125 0.9375 0
0.375 0.9375 0
0.3125 1 0
0.375 1 0
0.4375 0.875 0
0.5 0.875 0
0.4375 0.9375 0
0.5 0.9375 0
0.375 0.9375 0
0.4375 0.9375 0
0.375 1 0
0.4375 1 0
0.625 0.5 0
0.6875 0.5 0
0.625 0.5625 0
0.6875 0.5625 0
0.6875 0.5 0
0.75 0.5 0
0.6875 0.5625 0
0.75 0.5625 0
0.75 0.5 0
0.8125 0.5 0
0.75 0.5625 0
0.8125 0.5625 0
1.3125 0.625 0
1.375 0.625 0
1.3125 0.6875 0
1.375 0.6875 0
1.1875 0.9375 0
1.25 0.9375 0
1.1875 1 0
1.25 1 0
1.25 0.9375 0
1.3125 0.9375 0
1.25 1 0
1.3125 1 0
1.3125 0.9375 0
1.375 0.9375 0
1.3125 1 0
1.375 1 0
1.375 0.9375 0
1.4375 0.9375 0
1.375 1 0
1.4375 1 0
1.4375 0.9375 0
1.5 0.9375 0
1.4375 1 0
1.5 1 0
1.5625 0.875 0
1.625 0.875 0
1.5625 0.9375 0
1.625 0.9375 0
1.5 0.9375 0
1.5625 0.9375 0
1.5 1 0
1.5625 1 0
1.5625 0.9375 0
1.625 0.9375 0
1.5625 1 0
1.625 1 0
1.75 0.8125 0
1.8125 0.8125 0
1.75 0.875 0
1.8125 0.875 0
1.8125 0.8125 0
1.875 0.8125 0
1.8125 0.875 0
1.875 0.875 0
0 0 0
0.0625 0 0
0 0.0625 0
0.0625 0.0625 0
0.0625 0 0
0.125 0 0
0.0625 0.0625 0
0.125 0.0625 0
0 0.0625 0
0.0625 0.0625 0
0 0.125 0
0.0625 0.125 0
0.0625 0.0625 0
0.125 0.0625 0
0.0625 0.125 0
0.125 0.125 0
0 0.375 0
0.0625 0.375 0
0 0.4375 0
0.0625 0.4375 0
0.0625 0.375 0
0.125 0.375 0
0.0625 0.4375 0
0.125 0.4375 0
0 0.4375 0
0.0625 0.4375 0
0 0.5 0
0.0625 0.5 0
0.0625 0.4375 0
0.125 0.4375 0
0.0625 0.5 0
0.125 0.5 0
0.25 0.375 0
0.3125 0.375 0
0.25 0.4375 0
0.3125 0.4375 0
0.3125 0.375 0
0.375 0.375 0
0.3125 0.4375 0
0.375 0.4375 0
0.25 0.4375 0
0.3125 0.4375 0
0.25 0.5 0
0.3125 0.5 0
0.3125 0.4375 0
0.375 0.4375 0
0.3125 0.5 0
0.375 0.5 0
0.375 0.375 0
0.4375 0.375 0
0.375 0.4375 0
0.4375 0.4375 0
0.4375 0.375 0
0.5 0.375 0
0.4375 0.4375 0
0.5 0.4375 0
0.375 0.4375 0
0.4375 0.4375 0
0.375 0.5 0
0.4375 0.5 0
0.4375 0.4375 0
0.5 0.4375 0
0.4375 0.5 0
0.5 0.5 0
0.5 0.375 0
0.5625 0.375 0
0.5 0.4375 0
0.5625 0.4375 0
0.5625 0.375 0
0.625 0.375 0
0.5625 0.4375 0
0.625 0.4375 0
0.5 0.4375 0
0.5625 0.4375 0
0.5 0.5 0
0.5625 0.5 0
0.5625 0.4375 0
0.625 0.4375 0
0.5625 0.5 0
0.625 0.5 0
1.625 0 0
1.6875 0 0
1.625 0.0625 0
1.6875 0.0625 0
1.6875 0 0
1.75 0 0
1.6875 0.0625 0
1.75 0.0625 0
1.625 0.0625 0
1.6875 0.0625 0
1.625 0.125 0
1.6875 0.125 0
1.6875 0.0625 0
1.75 0.0625 0
1.6875 0.125 0
1.75 0.125 0
1.875 0.125 0
1.9375 0.125 0
1.875 0.1875 0
1.9375 0.1875 0
1.9375 0.125 0
2 0.125 0
1.9375 0.1875 0
2 0.1875 0
1.875 0.1875 0
1.9375 0.1875 0
1.875 0.25 0
1.9375 0.25 0
1.9375 0.1875 0
2 0.1875 0
1.9375 0.25 0
2 0.25 0
0 0.5 0
0.0625 0.5 0
0 0.5625 0
0.0625 0.5625 0
0.0625 0.5 0
0.125 0.5 0
0.0625 0.5625 0
0.125 0.5625 0
0 0.5625 0
0.0625 0.5625 0
0 0.625 0
0.0625 0.625 0
0.0625 0.5625 0
0.125 0.5625 0
0.0625 0.625 0
0.125 0.625 0
0.25 0.5 0
0.3125 0.5 0
0.25 0.5625 0
0.3125 0.5625 0
0.3125 0.5 0
0.375 0.5 0
0.3125 0.5625 0
0.375 0.5625 0
0.25 0.5625 0
0.3125 0.5625 0
0.25 0.625 0
0.3125 0.625 0
0.3125 0.5625 0
0.375 0.5625 0
0.3125 0.625 0
0.375 0.625 0
0.375 0.5 0
0.4375 0.5 0
0.375 0.5625 0
0.4375 0.5625 0
0.4375 0.5 0
0.5 0.5 0
0.4375 0.5625 0
0.5 0.5625 0
0.375 0.5625 0
0.4375 0.5625 0
0.375 0.625 0
0.4375 0.625 0
0.4375 0.5625 0
0.5 0.5625 0
0.4375 0.625 0
0.5 0.625 0
0 0.875 0
0.0625 0.875 0
0 0.9375 0
0.0625 0.9375 0
0.0625 0.875 0
0.125 0.875 0
0.0625 0.9375 0
0.125 0.9375 0
0 0.9375 0
0.0625 0.9375 0
0 1 0
0.0625 1 0
0.0625 0.9375 0
0.125 0.9375 0
0.0625 1 0
0.125 1 0
0.5 0.5 0
0.5625 0.5 0
0.5 0.5625 0
0.5625 0.5625 0
0.5625 0.5 0
0.625 0.5 0
0.5625 0.5625 0
0.625 0.5625 0
0.5 0.5625 0
0.5625 0.5625 0
0.5 0.625 0
0.5625 0.625 0
0.5625 0.5625 0
0.625 0.5625 0
0.5625 0.625 0
0.625 0.625 0
1.625 0.875 0
1.6875 0.875 0
1.625 0.9375 0
1.6875 0.9375 0
1.6875 0.875 0
1.75 0.875 0
1.6875 0.9375 0
1.75 0.9375 0
1.625 0.9375 0
1.6875 0.9375 0
1.625 1 0
1.6875 1 0
1.6875 0.9375 0
1.75 0.9375 0
1.6875 1 0
1.75 1 0
1.875 0.75 0
1.9375 0.75 0
1.875 0.8125 0
1.9375 0.8125 0
1.9375 0.75 0
2 0.75 0
1.9375 0.8125 0
2 0.8125 0
1.875 0.8125 0
1.9375 0.8125 0
1.875 0.875 0
1.9375 0.875 0
1.9375 0.8125 0
2 0.8125 0
1.9375 0.875 0
2 0.875 0
0.125 0.0625 0
0.15625 0.0625 0
0.125 0.09375 0
0.15625 0.09375 0
0.15625 0.0625 0
0.1875 0.0625 0
0.15625 0.09375 0
0.1875 0.09375 0
0.125 0.09375 0
0.15625 0.09375 0
0.125 0.125 0
0.15625 0.125 0
0.15625 0.09375 0
0.1875 0.09375 0
0.15625 0.125 0
0.1875 0.125 0
0.1875 0.0625 0
0.21875 0.0625 0
0.1875 0.09375 0
0.21875 0.09375 0
0.21875 0.0625 0
0.25 0.0625 0
0.21875 0.09375 0
0.25 0.09375 0
0.1875 0.09375 0
0.21875 0.09375 0
0.1875 0.125 0
0.21875 0.125 0
0.21875 0.09375 0
0.25 0.09375 0
0.21875 0.125 0
0.25 0.125 0
0 0.125 0
0.03125 0.125 0
0 0.15625 0
0.03125 0.15625 0
0.03125 0.125 0
0.0625 0.125 0
0.03125 0.15625 0
0.0625 0.15625 0
0 0.15625 0
0.03125 0.15625 0
0 0.1875 0
0.03125 0.1875 0
0.03125 0.15625 0
0.0625 0.15625 0
0.03125 0.1875 0
0.0625 0.1875 0
0.0625 0.125 0
0.09375 0.125 0
0.0625 0.15625 0
0.09375 0.15625 0
0.09375 0.125 0
0.125 0.125 0
0.09375 0.15625 0
0.125 0.15625 0
0.0625 0.15625 0
0.09375 0.15625 0
0.0625 0.1875 0
0.09375 0.1875 0
0.09375 0.15625 0
0.125 0.15625 0
0.09375 0.1875 0
0.125 0.1875 0
0 0.1875 0
0.03125 0.1875 0
0 0.21875 0
0.03125 0.21875 0
0.03125 0.1875 0
0.0625 0.1875 0
0.03125 0.21875 0
0.0625 0.21875 0
0 0.21875 0
0.03125 0.21875 0
0 0.25 0
0.03125 0.25 0
0.03125 0.21875 0
0.0625 0.21875 0
0.03125 0.25 0
0.0625 0.25 0
0.0625 0.1875 0
0.09375 0.1875 0
0.0625 0.21875 0
0.09375 0.21875 0
0.09375 0.1875 0
0.125 0.1875 0
0.09375 0.21875 0
0.125 0.21875 0
0.0625 0.21875 0
0.09375 0.21875 0
0.0625 0.25 0
0.09375 0.25 0
0.09375 0.21875 0
0.125 0.21875 0
0.09375 0.25 0
0.125 0.25 0
0.125 0.125 0
0.15625 0.125 0
0.125 0.15625 0
0.15625 0.15625 0
0.15625 0.125 0
0.1875 0.125 0
0.15625 0.15625 0
0.1875 0.15625 0
0.125 0.15625 0
0.15625 0.15625 0
0.125 0.1875 0
0.15625 0.1875 0
0.15625 0.15625 0
0.1875 0.15625 0
0.15625 0.1875 0
0.1875 0.1875 0
0.1875 0.125 0
0.21875 0.125 0
0.1875 0.15625 0
0.21875 0.15625 0
0.21875 0.125 0
0.25 0.125 0
0.21875 0.15625 0
0.25 0.15625 0
0.1875 0.15625 0
0.21875 0.15625 0
0.1875 0.1875 0
0.21875 0.1875 0
0.21875 0.15625 0
0.25 0.15625 0
0.21875 0.1875 0
0.25 0.1875 0
0.125 0.1875 0
0.15625 0.1875 0
0.125 0.21875 0
0.15625 0.21875 0
0.15625 0.1875 0
0.1875 0.1875 0
0.15625 0.21875 0
0.1875 0.21875 0
0.125 0.21875 0
0.15625 0.21875 0
0.125 0.25 0
0.15625 0.25 0
0.15625 0.21875 0
0.1875 0.21875 0
0.15625 0.25 0
0.1875 0.25 0
0.1875 0.1875 0
0.21875 0.1875 0
0.1875 0.21875 0
0.21875 0.21875 0
0.21875 0.1875 0
0.25 0.1875 0
0.21875 0.21875 0
0.25 0.21875 0
0.1875 0.21875 0
0.21875 0.21875 0
0.1875 0.25 0
0.21875 0.25 0
0.21875 0.21875 0
0.25 0.21875 0
0.21875 0.25 0
0.25 0.25 0
0.25 0.0625 0
0.28125 0.0625 0
0.25 0.09375 0
0.28125 0.09375 0
0.28125 0.0625 0
0.3125 0.0625 0
0.28125 0.09375 0
0.3125 0.09375 0
0.25 0.09375 0
0.28125 0.09375 0
0.25 0.125 0
0.28125 0.125 0
0.28125 0.09375 0
0.3125 0.09375 0
0.28125 0.125 0
0.3125 0.125 0
0.3125 0.0625 0
0.34375 0.0625 0
0.3125 0.09375 0
0.34375 0.09375 0
0.34375 0.0625 0
0.375 0.0625 0
0.34375 0.09375 0
0.375 0.09375 0
0.3125 0.09375 0
0.34375 0.09375 0
0.3125 0.125 0
0.34375 0.125 0
0.34375 0.09375 0
0.375 0.09375 0
0.34375 0.125 0
0.375 0.125 0
0.4375 0 0
0.46875 0 0
0.4375 0.03125 0
0.46875 0.03125 0
0.46875 0 0
0.5 0 0
0.46875 0.03125 0
0.5 0.03125 0
0.4375 0.03125 0
0.46875 0.03125 0
0.4375 0.0625 0
0.46875 0.0625 0
0.46875 0.03125 0
0.5 0.03125 0
0.46875 0.0625 0
0.5 0.0625 0
0.375 0.0625 0
0.40625 0.0625 0
0.375 0.09375 0
0.40625 0.09375 0
0.40625 0.0625 0
0.4375 0.0625 0
0.40625 0.09375 0
0.4375 0.09375 0
0.375 0.09375 0
0.40625 0.09375 0
0.375 0.125 0
0.40625 0.125 0
0.40625 0.09375 0
0.4375 0.09375 0
0.40625 0.125 0
0.4375 0.125 0
0.25 0.125 0
0.28125 0.125 0
0.25 0.15625 0
0.28125 0.15625 0
0.28125 0.125 0
0.3125 0.125 0
0.28125 0.15625 0
0.3125 0.15625 0
0.25 0.15625 0
0.28125 0.15625 0
0.25 0.1875 0
0.28125 0.1875 0
0.28125 0.15625 0
0.3125 0.15625 0
0.28125 0.1875 0
0.3125 0.1875 0
0.3125 0.125 0
0.34375 0.125 0
0.3125 0.15625 0
0.34375 0.15625 0
0.34375 0.125 0
0.375 0.125 0
0.34375 0.15625 0
0.375 0.15625 0
[...]
POINT_DATA 6608
SCALARS x_displacement double 1
LOOKUP_TABLE default
-1.15686 -2.83237 8.09615e-09 8.52521e-09 25.5658 25.7094 18.8737 19.3157 25.7094 25.6293 19.3157 19.797 8.09615e-09 8.52521e-09 1.15686 2.83237 -18.8737 -19.3157 -25.5658 -25.7094 -19.3157 -19.797 -25.7094 -25.6293 4.11623 5.53095 2.13748 3.13108 5.53095 6.59231 3.13108 3.99027 6.59231 7.38389 3.99027 4.73858 7.38389 7.97735 4.73858 5.38526 7.97735 8.41782 5.38526 5.93589 5.93589 6.47991 3.66163 4.30768 -1.64792 -2.45166 -1.15686 -1.99462 -2.45166 -2.8479 -1.99462 -2.83237 -2.8479 -2.60688 -2.83237 -3.83692 -4.96739 -1.9449 1.09753e-08 1.63732e-08 -1.9449 -0.439453 1.63732e-08 2.59907e-08 -0.439453 -0.385724 2.59907e-08 1.51034e-08 16.8334 16.9986 14.6277 14.637 16.9986 17.9216 14.637 14.607 17.9216 19.1912 14.607 16.2331 19.1912 20.5025 16.2331 17.6888 20.5025 21.8759 17.6888 18.8984 5.92868 6.48085 3.51636 3.88607 21.8759 23.1177 18.8984 19.988 23.1177 24.3307 19.988 20.4857 19.988 20.4857 16.6185 16.5774 18.8737 19.0947 15.7067 16.2635 19.0947 19.3157 16.2635 17.5 1.15686 1.99462 1.64792 2.45166 1.99462 2.83237 2.45166 2.8479 2.83237 3.83692 2.8479 2.60688 -2.13748 -3.13108 -4.11623 -5.53095 -3.13108 -3.99027 -5.53095 -6.59231 -3.99027 -4.73858 -6.59231 -7.38389 -4.73858 -5.38526 -7.38389 -7.97735 -3.66163 -4.30768 -5.93589 -6.47991 -5.38526 -5.93589 -7.97735 -8.41782 1.09753e-08 1.63732e-08 4.96739 1.9449 1.63732e-08 2.59907e-08 1.9449 0.439453 2.59907e-08 1.51034e-08 0.439453 0.385724 -3.51636 -3.88607 -5.92868 -6.48085 -14.6277 -14.637 -16.8334 -16.9986 -14.637 -14.607 -16.9986 -17.9216 -14.607 -16.2331 -17.9216 -19.1912 -16.2331 -17.6888 -19.1912 -20.5025 -17.6888 -18.8984 -20.5025 -21.8759 -16.6185 -16.5774 -19.988 -20.4857 -18.8984 -19.988 -21.8759 -23.1177 -19.988 -20.4857 -23.1177 -24.3307 -15.7067 -16.2635 -18.8737 -19.0947 -16.2635 -17.5 -19.0947 -19.3157 0 2.30462 0 0.986955 2.30462 4.11623 0.986955 2.13748 0 0.986955 0 0.0998849 0.986955 2.13748 0.0998849 0.425778 0 -0.482545 0 -0.234315 -0.482545 -1.15686 -0.234315 -0.578432 0 -0.234315 0 4.04281e-09 -0.234315 -0.578432 4.04281e-09 8.09615e-09 -2.83237 -3.83692 -1.41618 -1.52391 -3.83692 -2.99407 -1.52391 -1.9604 -1.41618 -1.52391 8.52521e-09 6.72775e-09 -1.52391 -1.9604 6.72775e-09 3.99611e-10 -2.99407 -3.02081 -1.9604 -2.58001 -3.02081 -2.77257 -2.58001 -4.41075 -1.9604 -2.58001 3.99611e-10 -1.82216e-09 -2.58001 -4.41075 -1.82216e-09 1.37847e-09 -2.77257 -2.64507 -4.41075 -5.09053 -2.64507 -2.69034 -5.09053 -4.96739 -4.41075 -5.09053 1.37847e-09 7.8904e-09 -5.09053 -4.96739 7.8904e-09 1.09753e-08 24.3307 25.1159 20.4857 21.3525 25.1159 25.5658 21.3525 22.2198 20.4857 21.3525 16.5774 17.9973 21.3525 22.2198 17.9973 18.8737 19.3157 19.5563 17.5 17.3429 19.5563 19.797 17.3429 17.0337 17.5 17.3429 13.994 14.0368 17.3429 17.0337 14.0368 14.0442 0 4.04281e-09 0 0.234315 4.04281e-09 8.09615e-09 0.234315 0.578432 0 0.234315 0 0.482545 0.234315 0.578432 0.482545 1.15686 8.52521e-09 6.72775e-09 1.41618 1.52391 6.72775e-09 3.99611e-10 1.52391 1.9604 1.41618 1.52391 2.83237 3.83692 1.52391 1.9604 3.83692 2.99407 3.99611e-10 -1.82216e-09 1.9604 2.58001 -1.82216e-09 1.37847e-09 2.58001 4.41075 1.9604 2.58001 2.99407 3.02081 2.58001 4.41075 3.02081 2.77257 0 -0.0998849 0 -0.986955 -0.0998849 -0.425778 -0.986955 -2.13748 0 -0.986955 0 -2.30462 -0.986955 -2.13748 -2.30462 -4.11623 1.37847e-09 7.8904e-09 4.41075 5.09053 7.8904e-09 1.09753e-08 5.09053 4.96739 4.41075 5.09053 2.77257 2.64507 5.09053 4.96739 2.64507 2.69034 -16.5774 -17.9973 -20.4857 -21.3525 -17.9973 -18.8737 -21.3525 -22.2198 -20.4857 -21.3525 -24.3307 -25.1159 -21.3525 -22.2198 -25.1159 -25.5658 -13.994 -14.0368 -17.5 -17.3429 -14.0368 -14.0442 -17.3429 -17.0337 -17.5 -17.3429 -19.3157 -19.5563 -17.3429 -17.0337 -19.5563 -19.797 2.13748 2.63428 1.28163 1.66965 2.63428 3.13108 1.66965 2.05328 1.28163 1.66965 0.425778 0.676187 1.66965 2.05328 0.676187 0.996378 3.13108 3.56068 2.05328 2.43593 3.56068 3.99027 2.43593 2.80735 2.05328 2.43593 0.996378 1.32516 2.43593 2.80735 1.32516 1.66144 0 0.0499424 0 -0.201437 0.0499424 0.0998849 -0.201437 -0.380713 0 -0.201437 0 -0.464324 -0.201437 -0.380713 -0.464324 -0.835153 0.0998849 0.262831 -0.380713 -0.533466 0.262831 0.425778 -0.533466 -0.527987 -0.380713 -0.533466 -0.835153 -1.16552 -0.533466 -0.527987 -1.16552 -1.4617 0 -0.464324 0 -0.777454 -0.464324 -0.835153 -0.777454 -1.24349 0 -0.777454 0 -1.13992 -0.777454 -1.24349 -1.13992 -1.56097 -0.835153 -1.16552 -1.24349 -1.70984 -1.16552 -1.4617 -1.70984 -2.28409 -1.24349 -1.70984 -1.56097 -1.95638 -1.70984 -2.28409 -1.95638 -2.10791 0.425778 0.676187 -0.527987 -0.36525 0.676187 0.996378 -0.36525 -0.0956204 -0.527987 -0.36525 -1.4617 -1.43713 -0.36525 -0.0956204 -1.43713 -1.2172 0.996378 1.32516 -0.0956204 0.198616 1.32516 1.66144 0.198616 0.524906 -0.0956204 0.198616 -1.2172 -0.941478 0.198616 0.524906 -0.941478 -0.613521 -1.4617 -1.43713 -2.28409 -2.53264 -1.43713 -1.2172 -2.53264 -2.35497 -2.28409 -2.53264 -2.10791 -3.51014 -2.53264 -2.35497 -3.51014 -3.45388 -1.2172 -0.941478 -2.35497 -2.08668 -0.941478 -0.613521 -2.08668 -1.74648 -2.35497 -2.08668 -3.45388 -3.20354 -2.08668 -1.74648 -3.20354 -2.83411 3.99027 4.36442 2.80735 3.17094 4.36442 4.73858 3.17094 3.51826 2.80735 3.17094 1.66144 2.00701 3.17094 3.51826 2.00701 2.35024 4.73858 5.06192 3.51826 3.85679 5.06192 5.38526 3.85679 4.17771 3.51826 3.85679 2.35024 2.68595 3.85679 4.17771 2.68595 3.01599 8.41782 8.59007 7.17686 7.36191 8.59007 8.73335 7.36191 7.553 7.17686 7.36191 5.93589 6.2079 7.36191 7.553 6.2079 6.47991 5.38526 5.66058 4.17771 4.49211 5.66058 5.93589 4.49211 4.79876 4.17771 4.49211 3.01599 3.34118 4.49211 4.79876 3.34118 3.66163 1.66144 2.00701 0.524906 0.869398 2.00701 2.35024 0.869398 1.20823 0.524906 0.869398 -0.613521 -0.265303 0.869398 1.20823 -0.265303 0.070443 2.35024 2.68595 1.20823 1.53924 2.68595 3.01599 1.53924 1.87629 1.20823 1.53924 0.070443 0.413198 1.53924 1.87629 0.413198 0.761217 -0.613521 -0.265303 -1.74648 -1.39522 -0.265303 0.070443 -1.39522 -1.0594 -1.74648 -1.39522 -2.83411 -2.52414 -1.39522 -1.0594 -2.52414 -2.17819 0.070443 0.413198 -1.0594 -0.702608 0.413198 0.761217 -0.702608 -0.347047 -1.0594 -0.702608 -2.17819 -1.80614 -0.702608 -0.347047 -1.80614 -1.4517 3.01599 3.34118 1.87629 2.21162 3.34118 3.66163 2.21162 2.54542 1.87629 2.21162 0.761217 1.09846 2.21162 2.54542 1.09846 1.42577 3.66163 3.98465 2.54542 2.87407 3.98465 4.30768 2.87407 3.19965 2.54542 2.87407 1.42577 1.76086 2.87407 3.19965 1.76086 2.10201 0.761217 1.09846 -0.347047 -0.0219329 1.09846 1.42577 -0.0219329 0.299728 -0.347047 -0.0219329 -1.4517 -1.1548 -0.0219329 0.299728 -1.1548 -0.824548 1.42577 1.76086 0.299728 0.658221 1.76086 2.10201 0.658221 1.02387 0.299728 0.658221 -0.824548 -0.428218 0.658221 1.02387 -0.428218 -0.0428071 0 -1.13992 0 -0.443089 -1.13992 -1.56097 -0.443089 -0.976845 0 -0.443089 0 -0.329747 -0.443089 -0.976845 -0.329747 -0.717602 -1.56097 -1.95638 -0.976845 -1.47266 -1.95638 -2.10791 -1.47266 -2.09229 -0.976845 -1.47266 -0.717602 -1.20065 -1.47266 -2.09229 -1.20065 -1.64792 0 -0.329747 0 -0.264496 -0.329747 -0.717602 -0.264496 -0.595577 0 -0.264496 0 -0.241272 -0.264496 -0.595577 -0.241272 -0.482545 -0.717602 -1.20065 -0.595577 -0.978008 -1.20065 -1.64792 -0.978008 -1.40239 -0.595577 -0.978008 -0.482545 -0.819704 -0.978008 -1.40239 -0.819704 -1.15686 -2.10791 -3.51014 -2.09229 -2.44801 -3.51014 -3.45388 -2.44801 -2.81783 -2.09229 -2.44801 -1.64792 -2.04979 -2.44801 -2.81783 -2.04979 -2.45166 -3.45388 -3.20354 -2.81783 -3.26587 -3.20354 -2.83411 -3.26587 -3.54019 -2.81783 -3.26587 -2.45166 -2.64978 -3.26587 -3.54019 -2.64978 -2.8479 -2.83411 -2.52414 -3.54019 -3.55688 -2.52414 -2.17819 -3.55688 -3.27075 -3.54019 -3.55688 -2.8479 -2.72739 -3.55688 -3.27075 -2.72739 -2.60688 -2.17819 -1.80614 -3.27075 -2.85545 -1.80614 -1.4517 -2.85545 -2.56227 -3.27075 -2.85545 -2.60688 -3.50288 -2.85545 -2.56227 -3.50288 -3.57764 -2.60688 -3.50288 -3.2219 -3.19407 -3.50288 -3.57764 -3.19407 -3.15642 -3.2219 -3.19407 -3.83692 -3.41549 -3.19407 -3.15642 -3.41549 -2.99407 -1.4517 -1.1548 -2.56227 -2.29443 -1.1548 -0.824548 -2.29443 -1.94758 -2.56227 -2.29443 -3.57764 -3.43043 -2.29443 -1.94758 -3.43043 -3.01927 -0.824548 -0.428218 -1.94758 -1.4822 -0.428218 -0.0428071 -1.4822 -1.10207 -1.94758 -1.4822 -3.01927 -2.46183 -1.4822 -1.10207 -2.46183 -2.16967 -3.57764 -3.43043 -3.15642 -3.00269 -3.43043 -3.01927 -3.00269 -2.75162 -3.15642 -3.00269 -2.99407 -3.00744 -3.00269 -2.75162 -3.00744 -3.02081 -3.01927 -2.46183 -2.75162 -3.03454 -2.46183 -2.16967 -3.03454 -3.1583 -2.75162 -3.03454 -3.02081 -2.89669 -3.03454 -3.1583 -2.89669 -2.77257 8.73335 8.88978 7.553 7.7745 8.88978 9.10003 7.7745 8.03024 7.553 7.7745 6.47991 6.74281 7.7745 8.03024 6.74281 7.02471 9.10003 9.32692 8.03024 8.29229 9.32692 9.55818 8.29229 8.56707 8.03024 8.29229 7.02471 7.30666 8.29229 8.56707 7.30666 7.61134 6.47991 6.74281 5.39379 5.69326 6.74281 7.02471 5.69326 5.98958 5.39379 5.69326 4.30768 4.61595 5.69326 5.98958 4.61595 4.92804 7.02471 7.30666 5.98958 6.28569 7.30666 7.61134 6.28569 6.6019 5.98958 6.28569 4.92804 5.24355 6.28569 6.6019 5.24355 5.56395 9.55818 9.82788 8.56707 8.92976 9.82788 10.3841 8.92976 9.3753 8.56707 8.92976 7.61134 7.97457 8.92976 9.3753 7.97457 8.3431 10.3841 10.7715 9.3753 9.69711 10.7715 10.8967 9.69711 9.94045 9.3753 9.69711 8.3431 8.64803 9.69711 9.94045 8.64803 8.92722 7.61134 7.97457 6.6019 6.94494 7.97457 8.3431 6.94494 7.28162 6.6019 6.94494 5.56395 5.89034 6.94494 7.28162 5.89034 6.21323 8.3431 8.64803 7.28162 7.58486 8.64803 8.92722 7.58486 7.89858 7.28162 7.58486 6.21323 6.53051 7.58486 7.89858 6.53051 6.86201 4.30768 4.61595 3.19965 3.528 4.61595 4.92804 3.528 3.85396 3.19965 3.528 2.10201 2.43937 3.528 3.85396 2.43937 2.77307 4.92804 5.24355 3.85396 4.17858 5.24355 5.56395 4.17858 4.50131 3.85396 4.17858 2.77307 3.10262 4.17858 4.50131 3.10262 3.42977 2.10201 2.43937 1.02387 1.36302 2.43937 2.77307 1.36302 1.68553 1.02387 1.36302 -0.0428071 0.28006 1.36302 1.68553 0.28006 0.58528 2.77307 3.10262 1.68553 2.01511 3.10262 3.42977 2.01511 2.35211 1.68553 2.01511 0.58528 0.921908 2.01511 2.35211 0.921908 1.28489 5.56395 5.89034 4.50131 4.82439 5.89034 6.21323 4.82439 5.15192 4.50131 4.82439 3.42977 3.75858 4.82439 5.15192 3.75858 4.09171 6.21323 6.53051 5.15192 5.48399 6.53051 6.86201 5.48399 5.81934 5.15192 5.48399 4.09171 4.42719 5.48399 5.81934 4.42719 4.76126 3.42977 3.75858 2.35211 2.69112 3.75858 4.09171 2.69112 3.02884 2.35211 2.69112 1.28489 1.6343 2.69112 3.02884 1.6343 1.96401 4.09171 4.42719 3.02884 3.36524 4.42719 4.76126 3.36524 3.69997 3.02884 3.36524 1.96401 2.29256 3.36524 3.69997 2.29256 2.63096 10.8967 10.7971 9.94045 10.2199 10.7971 10.5853 10.2199 10.7393 9.94045 10.2199 8.92722 9.2846 10.2199 10.7393 9.2846 9.71111 10.5853 11.6768 10.7393 11.1134 11.6768 12.1311 11.1134 11.2532 10.7393 11.1134 9.71111 10.0273 11.1134 11.2532 10.0273 10.2714 8.92722 9.2846 7.89858 8.26437 9.2846 9.71111 8.26437 8.63514 7.89858 8.26437 6.86201 7.21583 8.26437 8.63514 7.21583 7.56026 9.71111 10.0273 8.63514 8.94233 10.0273 10.2714 8.94233 9.22253 8.63514 8.94233 7.56026 7.86872 8.94233 9.22253 7.86872 8.18507 12.1311 12.3826 11.2532 11.1923 12.3826 12.915 11.1923 10.8467 11.2532 11.1923 10.2714 10.5454 11.1923 10.8467 10.5454 11.0348 12.915 13.1596 10.8467 11.9053 13.1596 13.6162 11.9053 12.5273 10.8467 11.9053 11.0348 11.4906 11.9053 12.5273 11.4906 11.7025 10.2714 10.5454 9.22253 9.57793 10.5454 11.0348 9.57793 10.0241 9.22253 9.57793 8.18507 8.55552 9.57793 10.0241 8.55552 8.94864 11.0348 11.4906 10.0241 10.385 11.4906 11.7025 10.385 10.6252 10.0241 10.385 8.94864 9.27465 10.385 10.6252 9.27465 9.54159 6.86201 7.21583 5.81934 6.15727 7.21583 7.56026 6.15727 6.48838 5.81934 6.15727 4.76126 5.09358 6.15727 6.48838 5.09358 5.42798 7.56026 7.86872 6.48838 6.81175 7.86872 8.18507 6.81175 7.1474 6.48838 6.81175 5.42798 5.76555 6.81175 7.1474 5.76555 6.10545 4.76126 5.09358 3.69997 4.03462 5.09358 5.42798 4.03462 4.37266 3.69997 4.03462 2.63096 2.97659 4.03462 4.37266 2.97659 3.31981 5.42798 5.76555 4.37266 4.71264 5.76555 6.10545 4.71264 5.04998 4.37266 4.71264 3.31981 3.65982 4.71264 5.04998 3.65982 3.99572 8.18507 8.55552 7.1474 7.50676 8.55552 8.94864 7.50676 7.86408 7.1474 7.50676 6.10545 6.44676 7.50676 7.86408 6.44676 6.78065 8.94864 9.27465 7.86408 8.17962 9.27465 9.54159 8.17962 8.47428 7.86408 8.17962 6.78065 7.1035 8.17962 8.47428 7.1035 7.42225 6.10545 6.44676 5.04998 5.38287 6.44676 6.78065 5.38287 5.71428 5.04998 5.38287 3.99572 4.32838 5.38287 5.71428 4.32838 4.66149 6.78065 7.1035 5.71428 6.04582 7.1035 7.42225 6.04582 6.37705 5.71428 6.04582 4.66149 4.99468 6.04582 6.37705 4.99468 5.32373 -0.0428071 0.28006 -1.10207 -0.818036 0.28006 0.58528 -0.818036 -0.524568 -1.10207 -0.818036 -2.16967 -1.92733 -0.818036 -0.524568 -1.92733 -1.64312 0.58528 0.921908 -0.524568 -0.163286 0.921908 1.28489 -0.163286 0.229208 -0.524568 -0.163286 -1.64312 -1.22305 -0.163286 0.229208 -1.22305 -0.809799 -2.16967 -1.92733 -3.1583 -3.03893 -1.92733 -1.64312 -3.03893 -2.74174 -3.1583 -3.03893 -2.77257 -2.70882 -3.03893 -2.74174 -2.70882 -2.64507 -1.64312 -1.22305 -2.74174 -2.20387 -1.22305 -0.809799 -2.20387 -1.83796 -2.74174 -2.20387 -2.64507 -2.66771 -2.20387 -1.83796 -2.66771 -2.69034 1.28489 1.6343 0.229208 0.574109 1.6343 1.96401 0.574109 0.882846 0.229208 0.574109 -0.809799 -0.497348 0.574109 0.882846 -0.497348 -0.217361 1.96401 2.29256 0.882846 1.20391 2.29256 2.63096 1.20391 1.56696 0.882846 1.20391 -0.217361 0.113749 1.20391 1.56696 0.113749 0.515821 -0.809799 -0.497348 -1.83796 -1.58633 -0.497348 -0.217361 -1.58633 -1.3332 -1.83796 -1.58633 -2.69034 -2.66362 -1.58633 -1.3332 -2.66362 -2.4495 -0.217361 0.113749 -1.3332 -0.97104 0.113749 0.515821 -0.97104 -0.505361 -1.3332 -0.97104 -2.4495 -1.99737 -0.97104 -0.505361 -1.99737 -1.45749 -2.69034 -2.66362 -3.82887 -3.05777 -2.66362 -2.4495 -3.05777 -2.26212 -3.82887 -3.05777 -4.96739 -3.45615 -3.05777 -2.26212 -3.45615 -1.9449 -2.4495 -1.99737 -2.26212 -1.55238 -1.99737 -1.45749 -1.55238 -2.02071 -2.26212 -1.55238 -1.9449 -1.19218 -1.55238 -2.02071 -1.19218 -0.439453 2.63096 2.97659 1.56696 1.93475 2.97659 3.31981 1.93475 2.27713 1.56696 1.93475 0.515821 0.900568 1.93475 2.27713 0.900568 1.22616 3.31981 3.65982 2.27713 2.60448 3.65982 3.99572 2.60448 2.93873 2.27713 2.60448 1.22616 1.53961 2.60448 2.93873 1.53961 1.88831 0.515821 0.900568 -0.505361 -0.129176 0.900568 1.22616 -0.129176 0.159963 -0.505361 -0.129176 -1.45749 -1.16827 -0.129176 0.159963 -1.16827 -0.917003 1.22616 1.53961 0.159963 0.472365 1.53961 1.88831 0.472365 0.848544 0.159963 0.472365 -0.917003 -0.597946 0.472365 0.848544 -0.597946 -0.165159 3.99572 4.32838 2.93873 3.27916 4.32838 4.66149 3.27916 3.61612 2.93873 3.27916 1.88831 2.24687 3.27916 3.61612 2.24687 2.58266 4.66149 4.99468 3.61612 3.94859 4.99468 5.32373 3.94859 4.27426 3.61612 3.94859 2.58266 2.90323 3.94859 4.27426 2.90323 3.22771 1.88831 2.24687 0.848544 1.22143 2.24687 2.58266 1.22143 1.54227 0.848544 1.22143 -0.165159 0.200661 1.22143 1.54227 0.200661 0.489525 2.58266 2.90323 1.54227 1.85274 2.90323 3.22771 1.85274 2.19286 1.54227 1.85274 0.489525 0.801905 1.85274 2.19286 0.801905 1.17167 -1.45749 -1.16827 -2.02071 -2.12804 -1.16827 -0.917003 -2.12804 -1.99976 -2.02071 -2.12804 -0.439453 -0.412588 -2.12804 -1.99976 -0.412588 -0.385724 -0.917003 -0.597946 -1.99976 -1.62515 -0.597946 -0.165159 -1.62515 -1.11219 -1.99976 -1.62515 -0.385724 -0.990168 -1.62515 -1.11219 -0.990168 -1.66981 -0.385724 -0.990168 -0.192862 -0.452494 -0.990168 -1.66981 -0.452494 -0.572194 -0.192862 -0.452494 1.51034e-08 1.23649e-08 -0.452494 -0.572194 1.23649e-08 9.01389e-09 -0.165159 0.200661 -1.11219 -0.828226 0.200661 0.489525 -0.828226 -0.570994 -1.11219 -0.828226 -1.66981 -1.77002 -0.828226 -0.570994 -1.77002 -1.62991 0.489525 0.801905 -0.570994 -0.24809 0.801905 1.17167 -0.24809 0.18029 -0.570994 -0.24809 -1.62991 -1.24181 -0.24809 0.18029 -1.24181 -0.747451 -1.66981 -1.77002 -0.572194 -0.699285 -1.77002 -1.62991 -0.699285 -0.749366 -0.572194 -0.699285 9.01389e-09 5.73029e-09 -0.699285 -0.749366 5.73029e-09 3.07603e-09 -1.62991 -1.24181 -0.749366 -0.900697 -1.24181 -0.747451 -0.900697 -1.27502 -0.749366 -0.900697 3.07603e-09 1.54255e-09 -0.900697 -1.27502 1.54255e-09 4.73971e-10 13.6162 14.2048 12.5273 12.9328 14.2048 14.7865 12.9328 13.4203 12.5273 12.9328 11.7025 11.7852 12.9328 13.4203 11.7852 11.6078 14.7865 15.3142 13.4203 13.9031 15.3142 15.7821 13.9031 14.4662 13.4203 13.9031 11.6078 12.2792 13.9031 14.4662 12.2792 13.1626 11.7025 11.7852 10.6252 10.8545 11.7852 11.6078 10.8545 11.1744 10.6252 10.8545 9.54159 9.82588 10.8545 11.1744 9.82588 10.2195 11.6078 12.2792 11.1744 11.7506 12.2792 13.1626 11.7506 12.2268 11.1744 11.7506 10.2195 10.6942 11.7506 12.2268 10.6942 11.0804 15.7821 16.2646 14.4662 15.1363 16.2646 16.8334 15.1363 15.7306 14.4662 15.1363 13.1626 13.8738 15.1363 15.7306 13.8738 14.6277 13.1626 13.8738 12.2268 12.5157 13.8738 14.6277 12.5157 12.7943 12.2268 12.5157 11.0804 11.3709 12.5157 12.7943 11.3709 11.6654 14.6277 14.6324 12.7943 13.1281 14.6324 14.637 13.1281 13.4334 12.7943 13.1281 11.6654 11.9823 13.1281 13.4334 11.9823 12.3162 9.54159 9.82588 8.47428 8.79798 9.82588 10.2195 8.79798 9.18471 8.47428 8.79798 7.42225 7.75872 8.79798 9.18471 7.75872 8.11796 10.2195 10.6942 9.18471 9.58811 10.6942 11.0804 9.58811 9.93133 9.18471 9.58811 8.11796 8.47225 9.58811 9.93133 8.47225 8.7928 7.42225 7.75872 6.37705 6.70788 7.75872 8.11796 6.70788 7.0369 6.37705 6.70788 5.32373 5.645 6.70788 7.0369 5.645 5.95823 8.11796 8.47225 7.0369 7.35826 8.47225 8.7928 7.35826 7.66979 7.0369 7.35826 5.95823 6.26555 7.35826 7.66979 6.26555 6.56837 11.0804 11.3709 9.93133 10.2276 11.3709 11.6654 10.2276 10.5256 9.93133 10.2276 8.7928 9.09317 10.2276 10.5256 9.09317 9.40151 11.6654 11.9823 10.5256 10.853 11.9823 12.3162 10.853 11.2004 10.5256 10.853 9.40151 9.73241 10.853 11.2004 9.73241 10.0854 8.7928 9.09317 7.66979 7.97344 9.09317 9.40151 7.97344 8.28553 7.66979 7.97344 6.56837 6.86889 7.97344 8.28553 6.86889 7.17128 9.40151 9.73241 8.28553 8.61315 9.73241 10.0854 8.61315 8.95682 8.28553 8.61315 7.17128 7.48195 8.61315 8.95682 7.48195 7.80188 14.637 14.622 13.4334 13.5506 14.622 14.607 13.5506 13.4857 13.4334 13.5506 12.3162 12.6748 13.5506 13.4857 12.6748 13.1642 14.607 15.4201 13.4857 13.5233 15.4201 16.2331 13.5233 14.9198 13.4857 13.5233 13.1642 13.9224 13.5233 14.9198 13.9224 14.6568 16.2331 16.9609 14.9198 15.8495 16.9609 17.6888 15.8495 16.5036 14.9198 15.8495 14.6568 15.2237 15.8495 16.5036 15.2237 15.6694 17.6888 18.2936 16.5036 17.0245 18.2936 18.8984 17.0245 17.4363 16.5036 17.0245 15.6694 15.9437 17.0245 17.4363 15.9437 16.0871 12.3162 12.6748 11.2004 11.5939 12.6748 13.1642 11.5939 12.0966 11.2004 11.5939 10.0854 10.4764 11.5939 12.0966 10.4764 10.9335 13.1642 13.9224 12.0966 12.7145 13.9224 14.6568 12.7145 13.3063 12.0966 12.7145 10.9335 11.4396 12.7145 13.3063 11.4396 11.9286 10.0854 10.4764 8.95682 9.32216 10.4764 10.9335 9.32216 9.7218 8.95682 9.32216 7.80188 8.13482 9.32216 9.7218 8.13482 8.47771 10.9335 11.4396 9.7218 10.1386 11.4396 11.9286 10.1386 10.5467 9.7218 10.1386 8.47771 8.82454 10.1386 10.5467 8.82454 9.17068 14.6568 15.2237 13.3063 13.8018 15.2237 15.6694 13.8018 14.1971 13.3063 13.8018 11.9286 12.3646 13.8018 14.1971 12.3646 12.7303 15.6694 15.9437 14.1971 14.4934 15.9437 16.0871 14.4934 14.7754 14.1971 14.4934 12.7303 13.0442 14.4934 14.7754 13.0442 13.3576 11.9286 12.3646 10.5467 10.9318 12.3646 12.7303 10.9318 11.2803 10.5467 10.9318 9.17068 9.51299 10.9318 11.2803 9.51299 9.8463 12.7303 13.0442 11.2803 11.6018 13.0442 13.3576 11.6018 11.9348 11.2803 11.6018 9.8463 10.1675 11.6018 11.9348 10.1675 10.4936 5.32373 5.645 4.27426 4.59087 5.645 5.95823 4.59087 4.89882 4.27426 4.59087 3.22771 3.55108 4.59087 4.89882 3.55108 3.86138 5.95823 6.26555 4.89882 5.19798 6.26555 6.56837 5.19798 5.48866 4.89882 5.19798 3.86138 4.15579 5.19798 5.48866 4.15579 4.43354 3.22771 3.55108 2.19286 2.536