# vtk DataFile Version 3.0
#This file was generated by the deal.II library on 2015/9/2 at 7:53:12
ASCII
DATASET UNSTRUCTURED_GRID

POINTS 6584 double
0 0 0
0.05 0 0
0 0.05 0
0.05 0.05 0
0.05 0 0
0.1 0 0
0.05 0.05 0
0.1 0.05 0
0.1 0 0
0.15 0 0
0.1 0.05 0
0.15 0.05 0
0.15 0 0
0.2 0 0
0.15 0.05 0
0.2 0.05 0
0.2 0 0
0.25 0 0
0.2 0.05 0
0.25 0.05 0
0.25 0 0
0.3 0 0
0.25 0.05 0
0.3 0.05 0
0.3 0 0
0.35 0 0
0.3 0.05 0
0.35 0.05 0
0.35 0 0
0.4 0 0
0.35 0.05 0
0.4 0.05 0
0.4 0 0
0.45 0 0
0.4 0.05 0
0.45 0.05 0
0.45 0 0
0.5 0 0
0.45 0.05 0
0.5 0.05 0
0.5 0 0
0.55 0 0
0.5 0.05 0
0.55 0.05 0
0.55 0 0
0.6 0 0
0.55 0.05 0
0.6 0.05 0
0.6 0 0
0.65 0 0
0.6 0.05 0
0.65 0.05 0
0.65 0 0
0.7 0 0
0.65 0.05 0
0.7 0.05 0
0.7 0 0
0.75 0 0
0.7 0.05 0
0.75 0.05 0
0.75 0 0
0.8 0 0
0.75 0.05 0
0.8 0.05 0
0.8 0 0
0.85 0 0
0.8 0.05 0
0.85 0.05 0
0.85 0 0
0.9 0 0
0.85 0.05 0
0.9 0.05 0
0.9 0 0
0.95 0 0
0.9 0.05 0
0.95 0.05 0
0.95 0 0
1 0 0
0.95 0.05 0
1 0.05 0
1 0 0
1.05 0 0
1 0.05 0
1.05 0.05 0
1.05 0 0
1.1 0 0
1.05 0.05 0
1.1 0.05 0
1.1 0 0
1.15 0 0
1.1 0.05 0
1.15 0.05 0
1.15 0 0
1.2 0 0
1.15 0.05 0
1.2 0.05 0
1.2 0 0
1.25 0 0
1.2 0.05 0
1.25 0.05 0
1.25 0 0
1.3 0 0
1.25 0.05 0
1.3 0.05 0
1.4 0 0
1.45 0 0
1.4 0.05 0
1.45 0.05 0
1.45 0 0
1.5 0 0
1.45 0.05 0
1.5 0.05 0
1.5 0 0
1.55 0 0
1.5 0.05 0
1.55 0.05 0
1.55 0 0
1.6 0 0
1.55 0.05 0
1.6 0.05 0
1.6 0 0
1.65 0 0
1.6 0.05 0
1.65 0.05 0
1.65 0 0
1.7 0 0
1.65 0.05 0
1.7 0.05 0
1.7 0 0
1.75 0 0
1.7 0.05 0
1.75 0.05 0
1.75 0 0
1.8 0 0
1.75 0.05 0
1.8 0.05 0
1.8 0 0
1.85 0 0
1.8 0.05 0
1.85 0.05 0
1.85 0 0
1.9 0 0
1.85 0.05 0
1.9 0.05 0
1.9 0 0
1.95 0 0
1.9 0.05 0
1.95 0.05 0
1.95 0 0
2 0 0
1.95 0.05 0
2 0.05 0
0 0.05 0
0.05 0.05 0
0 0.1 0
0.05 0.1 0
0.05 0.05 0
0.1 0.05 0
0.05 0.1 0
0.1 0.1 0
0.1 0.05 0
0.15 0.05 0
0.1 0.1 0
0.15 0.1 0
0.15 0.05 0
0.2 0.05 0
0.15 0.1 0
0.2 0.1 0
0.2 0.05 0
0.25 0.05 0
0.2 0.1 0
0.25 0.1 0
0.25 0.05 0
0.3 0.05 0
0.25 0.1 0
0.3 0.1 0
0.3 0.05 0
0.35 0.05 0
0.3 0.1 0
0.35 0.1 0
0.35 0.05 0
0.4 0.05 0
0.35 0.1 0
0.4 0.1 0
0.4 0.05 0
0.45 0.05 0
0.4 0.1 0
0.45 0.1 0
1.1 0.05 0
1.15 0.05 0
1.1 0.1 0
1.15 0.1 0
1.15 0.05 0
1.2 0.05 0
1.15 0.1 0
1.2 0.1 0
1.2 0.05 0
1.25 0.05 0
1.2 0.1 0
1.25 0.1 0
1.25 0.05 0
1.3 0.05 0
1.25 0.1 0
1.3 0.1 0
1.3 0.05 0
1.35 0.05 0
1.3 0.1 0
1.35 0.1 0
1.5 0.05 0
1.55 0.05 0
1.5 0.1 0
1.55 0.1 0
1.55 0.05 0
1.6 0.05 0
1.55 0.1 0
1.6 0.1 0
1.6 0.05 0
1.65 0.05 0
1.6 0.1 0
1.65 0.1 0
1.65 0.05 0
1.7 0.05 0
1.65 0.1 0
1.7 0.1 0
1.7 0.05 0
1.75 0.05 0
1.7 0.1 0
1.75 0.1 0
1.75 0.05 0
1.8 0.05 0
1.75 0.1 0
1.8 0.1 0
1.8 0.05 0
1.85 0.05 0
1.8 0.1 0
1.85 0.1 0
1.85 0.05 0
1.9 0.05 0
1.85 0.1 0
1.9 0.1 0
1.9 0.05 0
1.95 0.05 0
1.9 0.1 0
1.95 0.1 0
1.95 0.05 0
2 0.05 0
1.95 0.1 0
2 0.1 0
0.1 0.1 0
0.15 0.1 0
0.1 0.15 0
0.15 0.15 0
0.15 0.1 0
0.2 0.1 0
0.15 0.15 0
0.2 0.15 0
0.2 0.1 0
0.25 0.1 0
0.2 0.15 0
0.25 0.15 0
0.25 0.1 0
0.3 0.1 0
0.25 0.15 0
0.3 0.15 0
0.3 0.1 0
0.35 0.1 0
0.3 0.15 0
0.35 0.15 0
0.35 0.1 0
0.4 0.1 0
0.35 0.15 0
0.4 0.15 0
1.15 0.1 0
1.2 0.1 0
1.15 0.15 0
1.2 0.15 0
1.2 0.1 0
1.25 0.1 0
1.2 0.15 0
1.25 0.15 0
1.3 0.1 0
1.35 0.1 0
1.3 0.15 0
1.35 0.15 0
1.35 0.1 0
1.4 0.1 0
1.35 0.15 0
1.4 0.15 0
1.4 0.1 0
1.45 0.1 0
1.4 0.15 0
1.45 0.15 0
1.6 0.1 0
1.65 0.1 0
1.6 0.15 0
1.65 0.15 0
1.65 0.1 0
1.7 0.1 0
1.65 0.15 0
1.7 0.15 0
1.7 0.1 0
1.75 0.1 0
1.7 0.15 0
1.75 0.15 0
1.75 0.1 0
1.8 0.1 0
1.75 0.15 0
1.8 0.15 0
1.8 0.1 0
1.85 0.1 0
1.8 0.15 0
1.85 0.15 0
1.85 0.1 0
1.9 0.1 0
1.85 0.15 0
1.9 0.15 0
1.9 0.1 0
1.95 0.1 0
1.9 0.15 0
1.95 0.15 0
1.95 0.1 0
2 0.1 0
1.95 0.15 0
2 0.15 0
0.2 0.15 0
0.25 0.15 0
0.2 0.2 0
0.25 0.2 0
0.25 0.15 0
0.3 0.15 0
0.25 0.2 0
0.3 0.2 0
0.3 0.15 0
0.35 0.15 0
0.3 0.2 0
0.35 0.2 0
0.35 0.15 0
0.4 0.15 0
0.35 0.2 0
0.4 0.2 0
0.4 0.15 0
0.45 0.15 0
0.4 0.2 0
0.45 0.2 0
0.6 0.15 0
0.65 0.15 0
0.6 0.2 0
0.65 0.2 0
0.65 0.15 0
0.7 0.15 0
0.65 0.2 0
0.7 0.2 0
0.7 0.15 0
0.75 0.15 0
0.7 0.2 0
0.75 0.2 0
0.75 0.15 0
0.8 0.15 0
0.75 0.2 0
0.8 0.2 0
0.8 0.15 0
0.85 0.15 0
0.8 0.2 0
0.85 0.2 0
0.85 0.15 0
0.9 0.15 0
0.85 0.2 0
0.9 0.2 0
0.9 0.15 0
0.95 0.15 0
0.9 0.2 0
0.95 0.2 0
0.95 0.15 0
1 0.15 0
0.95 0.2 0
1 0.2 0
1 0.15 0
1.05 0.15 0
1 0.2 0
1.05 0.2 0
1.15 0.15 0
1.2 0.15 0
1.15 0.2 0
1.2 0.2 0
1.4 0.15 0
1.45 0.15 0
1.4 0.2 0
1.45 0.2 0
1.45 0.15 0
1.5 0.15 0
1.45 0.2 0
1.5 0.2 0
1.65 0.15 0
1.7 0.15 0
1.65 0.2 0
1.7 0.2 0
1.7 0.15 0
1.75 0.15 0
1.7 0.2 0
1.75 0.2 0
1.75 0.15 0
1.8 0.15 0
1.75 0.2 0
1.8 0.2 0
1.8 0.15 0
1.85 0.15 0
1.8 0.2 0
1.85 0.2 0
1.85 0.15 0
1.9 0.15 0
1.85 0.2 0
1.9 0.2 0
1.9 0.15 0
1.95 0.15 0
1.9 0.2 0
1.95 0.2 0
1.95 0.15 0
2 0.15 0
1.95 0.2 0
2 0.2 0
0 0.2 0
0.05 0.2 0
0 0.25 0
0.05 0.25 0
0.05 0.2 0
0.1 0.2 0
0.05 0.25 0
0.1 0.25 0
0.3 0.2 0
0.35 0.2 0
0.3 0.25 0
0.35 0.25 0
0.35 0.2 0
0.4 0.2 0
0.35 0.25 0
0.4 0.25 0
0.4 0.2 0
0.45 0.2 0
0.4 0.25 0
0.45 0.25 0
0.45 0.2 0
0.5 0.2 0
0.45 0.25 0
0.5 0.25 0
0.7 0.2 0
0.75 0.2 0
0.7 0.25 0
0.75 0.25 0
0.75 0.2 0
0.8 0.2 0
0.75 0.25 0
0.8 0.25 0
0.8 0.2 0
0.85 0.2 0
0.8 0.25 0
0.85 0.25 0
0.85 0.2 0
0.9 0.2 0
0.85 0.25 0
0.9 0.25 0
0.9 0.2 0
0.95 0.2 0
0.9 0.25 0
0.95 0.25 0
0.95 0.2 0
1 0.2 0
0.95 0.25 0
1 0.25 0
1 0.2 0
1.05 0.2 0
1 0.25 0
1.05 0.25 0
1.1 0.2 0
1.15 0.2 0
1.1 0.25 0
1.15 0.25 0
1.25 0.2 0
1.3 0.2 0
1.25 0.25 0
1.3 0.25 0
1.45 0.2 0
1.5 0.2 0
1.45 0.25 0
1.5 0.25 0
1.5 0.2 0
1.55 0.2 0
1.5 0.25 0
1.55 0.25 0
1.55 0.2 0
1.6 0.2 0
1.55 0.25 0
1.6 0.25 0
1.75 0.2 0
1.8 0.2 0
1.75 0.25 0
1.8 0.25 0
1.8 0.2 0
1.85 0.2 0
1.8 0.25 0
1.85 0.25 0
1.85 0.2 0
1.9 0.2 0
1.85 0.25 0
1.9 0.25 0
1.9 0.2 0
1.95 0.2 0
1.9 0.25 0
1.95 0.25 0
1.95 0.2 0
2 0.2 0
1.95 0.25 0
2 0.25 0
0 0.25 0
0.05 0.25 0
0 0.3 0
0.05 0.3 0
0.05 0.25 0
0.1 0.25 0
0.05 0.3 0
0.1 0.3 0
0.1 0.25 0
0.15 0.25 0
0.1 0.3 0
0.15 0.3 0
0.15 0.25 0
0.2 0.25 0
0.15 0.3 0
0.2 0.3 0
0.4 0.25 0
0.45 0.25 0
0.4 0.3 0
0.45 0.3 0
0.45 0.25 0
0.5 0.25 0
0.45 0.3 0
0.5 0.3 0
0.5 0.25 0
0.55 0.25 0
0.5 0.3 0
0.55 0.3 0
0.55 0.25 0
0.6 0.25 0
0.55 0.3 0
0.6 0.3 0
0.85 0.25 0
0.9 0.25 0
0.85 0.3 0
0.9 0.3 0
0.9 0.25 0
0.95 0.25 0
0.9 0.3 0
0.95 0.3 0
0.95 0.25 0
1 0.25 0
0.95 0.3 0
1 0.3 0
1.2 0.25 0
1.25 0.25 0
1.2 0.3 0
1.25 0.3 0
1.25 0.25 0
1.3 0.25 0
1.25 0.3 0
1.3 0.3 0
1.3 0.25 0
1.35 0.25 0
1.3 0.3 0
1.35 0.3 0
1.35 0.25 0
1.4 0.25 0
1.35 0.3 0
1.4 0.3 0
1.55 0.25 0
1.6 0.25 0
1.55 0.3 0
1.6 0.3 0
1.6 0.25 0
1.65 0.25 0
1.6 0.3 0
1.65 0.3 0
1.65 0.25 0
1.7 0.25 0
1.65 0.3 0
1.7 0.3 0
1.85 0.25 0
1.9 0.25 0
1.85 0.3 0
1.9 0.3 0
1.9 0.25 0
1.95 0.25 0
1.9 0.3 0
1.95 0.3 0
1.95 0.25 0
2 0.25 0
1.95 0.3 0
2 0.3 0
0 0.3 0
0.05 0.3 0
0 0.35 0
0.05 0.35 0
0.05 0.3 0
0.1 0.3 0
0.05 0.35 0
0.1 0.35 0
0.1 0.3 0
0.15 0.3 0
0.1 0.35 0
0.15 0.35 0
0.15 0.3 0
0.2 0.3 0
0.15 0.35 0
0.2 0.35 0
0.2 0.3 0
0.25 0.3 0
0.2 0.35 0
0.25 0.35 0
0.25 0.3 0
0.3 0.3 0
0.25 0.35 0
0.3 0.35 0
0.5 0.3 0
0.55 0.3 0
0.5 0.35 0
0.55 0.35 0
0.55 0.3 0
0.6 0.3 0
0.55 0.35 0
0.6 0.35 0
0.6 0.3 0
0.65 0.3 0
0.6 0.35 0
0.65 0.35 0
0.65 0.3 0
0.7 0.3 0
0.65 0.35 0
0.7 0.35 0
0.95 0.3 0
1 0.3 0
0.95 0.35 0
1 0.35 0
1.05 0.3 0
1.1 0.3 0
1.05 0.35 0
1.1 0.35 0
1.2 0.3 0
1.25 0.3 0
1.2 0.35 0
1.25 0.35 0
1.25 0.3 0
1.3 0.3 0
1.25 0.35 0
1.3 0.35 0
1.3 0.3 0
1.35 0.3 0
1.3 0.35 0
1.35 0.35 0
1.35 0.3 0
1.4 0.3 0
1.35 0.35 0
1.4 0.35 0
1.4 0.3 0
1.45 0.3 0
1.4 0.35 0
1.45 0.35 0
1.45 0.3 0
1.5 0.3 0
1.45 0.35 0
1.5 0.35 0
1.65 0.3 0
1.7 0.3 0
1.65 0.35 0
1.7 0.35 0
1.7 0.3 0
1.75 0.3 0
1.7 0.35 0
1.75 0.35 0
1.95 0.3 0
2 0.3 0
1.95 0.35 0
2 0.35 0
0 0.35 0
0.05 0.35 0
0 0.4 0
0.05 0.4 0
0.05 0.35 0
0.1 0.35 0
0.05 0.4 0
0.1 0.4 0
0.1 0.35 0
0.15 0.35 0
0.1 0.4 0
0.15 0.4 0
0.15 0.35 0
0.2 0.35 0
0.15 0.4 0
0.2 0.4 0
0.2 0.35 0
0.25 0.35 0
0.2 0.4 0
0.25 0.4 0
0.25 0.35 0
0.3 0.35 0
0.25 0.4 0
0.3 0.4 0
0.3 0.35 0
0.35 0.35 0
0.3 0.4 0
0.35 0.4 0
0.35 0.35 0
0.4 0.35 0
0.35 0.4 0
0.4 0.4 0
0.6 0.35 0
0.65 0.35 0
0.6 0.4 0
0.65 0.4 0
0.65 0.35 0
0.7 0.35 0
0.65 0.4 0
0.7 0.4 0
0.7 0.35 0
0.75 0.35 0
0.7 0.4 0
0.75 0.4 0
0.75 0.35 0
0.8 0.35 0
0.75 0.4 0
0.8 0.4 0
0.8 0.35 0
0.85 0.35 0
0.8 0.4 0
0.85 0.4 0
1.15 0.35 0
1.2 0.35 0
1.15 0.4 0
1.2 0.4 0
1.2 0.35 0
1.25 0.35 0
1.2 0.4 0
1.25 0.4 0
1.25 0.35 0
1.3 0.35 0
1.25 0.4 0
1.3 0.4 0
1.3 0.35 0
1.35 0.35 0
1.3 0.4 0
1.35 0.4 0
1.35 0.35 0
1.4 0.35 0
1.35 0.4 0
1.4 0.4 0
1.4 0.35 0
1.45 0.35 0
1.4 0.4 0
1.45 0.4 0
1.45 0.35 0
1.5 0.35 0
1.45 0.4 0
1.5 0.4 0
1.5 0.35 0
1.55 0.35 0
1.5 0.4 0
1.55 0.4 0
1.7 0.35 0
1.75 0.35 0
1.7 0.4 0
1.75 0.4 0
1.75 0.35 0
1.8 0.35 0
1.75 0.4 0
1.8 0.4 0
1.8 0.35 0
1.85 0.35 0
1.8 0.4 0
1.85 0.4 0
0 0.4 0
0.05 0.4 0
0 0.45 0
0.05 0.45 0
0.05 0.4 0
0.1 0.4 0
0.05 0.45 0
0.1 0.45 0
0.1 0.4 0
0.15 0.4 0
0.1 0.45 0
0.15 0.45 0
0.15 0.4 0
0.2 0.4 0
0.15 0.45 0
0.2 0.45 0
0.2 0.4 0
0.25 0.4 0
0.2 0.45 0
0.25 0.45 0
0.25 0.4 0
0.3 0.4 0
0.25 0.45 0
0.3 0.45 0
0.3 0.4 0
0.35 0.4 0
0.3 0.45 0
0.35 0.45 0
0.35 0.4 0
0.4 0.4 0
0.35 0.45 0
0.4 0.45 0
0.4 0.4 0
0.45 0.4 0
0.4 0.45 0
0.45 0.45 0
0.45 0.4 0
0.5 0.4 0
0.45 0.45 0
0.5 0.45 0
0.5 0.4 0
0.55 0.4 0
0.5 0.45 0
0.55 0.45 0
0.7 0.4 0
0.75 0.4 0
0.7 0.45 0
0.75 0.45 0
0.75 0.4 0
0.8 0.4 0
0.75 0.45 0
0.8 0.45 0
0.8 0.4 0
0.85 0.4 0
0.8 0.45 0
0.85 0.45 0
0.85 0.4 0
0.9 0.4 0
0.85 0.45 0
0.9 0.45 0
0.9 0.4 0
0.95 0.4 0
0.9 0.45 0
0.95 0.45 0
0.95 0.4 0
1 0.4 0
0.95 0.45 0
1 0.45 0
1 0.4 0
1.05 0.4 0
1 0.45 0
1.05 0.45 0
1.15 0.4 0
1.2 0.4 0
1.15 0.45 0
1.2 0.45 0
1.2 0.4 0
1.25 0.4 0
1.2 0.45 0
1.25 0.45 0
1.25 0.4 0
1.3 0.4 0
1.25 0.45 0
1.3 0.45 0
1.3 0.4 0
1.35 0.4 0
1.3 0.45 0
1.35 0.45 0
1.35 0.4 0
1.4 0.4 0
1.35 0.45 0
1.4 0.45 0
1.4 0.4 0
1.45 0.4 0
1.4 0.45 0
1.45 0.45 0
1.45 0.4 0
1.5 0.4 0
1.45 0.45 0
1.5 0.45 0
1.5 0.4 0
1.55 0.4 0
1.5 0.45 0
1.55 0.45 0
1.55 0.4 0
1.6 0.4 0
1.55 0.45 0
1.6 0.45 0
1.6 0.4 0
1.65 0.4 0
1.6 0.45 0
1.65 0.45 0
1.8 0.4 0
1.85 0.4 0
1.8 0.45 0
1.85 0.45 0
1.85 0.4 0
1.9 0.4 0
1.85 0.45 0
1.9 0.45 0
1.9 0.4 0
1.95 0.4 0
1.9 0.45 0
1.95 0.45 0
0 0.45 0
0.05 0.45 0
0 0.5 0
0.05 0.5 0
0.05 0.45 0
0.1 0.45 0
0.05 0.5 0
0.1 0.5 0
0.1 0.45 0
0.15 0.45 0
0.1 0.5 0
0.15 0.5 0
0.15 0.45 0
0.2 0.45 0
0.15 0.5 0
0.2 0.5 0
0.2 0.45 0
0.25 0.45 0
[...]
POINT_DATA 6584
SCALARS x_displacement double 1
LOOKUP_TABLE default
0 1.40963 0 0.808123 1.40963 2.47391 0.808123 1.66171 2.47391 3.35635 1.66171 2.41485 3.35635 4.11326 2.41485 3.08689 4.11326 4.78229 3.08689 3.69083 4.78229 5.40242 3.69083 4.24133 5.40242 6.02179 4.24133 4.75622 6.02179 6.67353 4.75622 5.27446 6.67353 7.33608 5.27446 5.83596 7.33608 7.97382 5.83596 6.40752 7.97382 8.57176 6.40752 7.01019 8.57176 9.16194 7.01019 7.62528 9.16194 9.75623 7.62528 8.2405 9.75623 10.3546 8.2405 8.855 10.3546 10.9569 8.855 9.4691 10.9569 11.563 9.4691 10.0828 11.563 12.173 10.0828 10.6961 12.173 12.787 10.6961 11.309 12.787 13.4047 11.309 11.9216 13.4047 14.0255 11.9216 12.5344 14.0255 14.6559 12.5344 13.1381 14.6559 15.3371 13.1381 13.6979 15.3371 16.0635 13.6979 14.2516 16.0635 16.759 14.2516 14.7333 16.759 17.277 14.7333 15.1273 17.277 17.5549 15.1273 15.4465 18.4398 18.174 16.0719 16.2365 18.174 17.642 16.2365 16.7121 17.642 18.576 16.7121 16.8074 18.576 19.1541 16.8074 16.5544 19.1541 19.5524 16.5544 17.0584 19.5524 19.988 17.0584 17.193 19.988 20.0922 17.193 17.463 20.0922 20.1376 17.463 17.725 20.1376 20.1751 17.725 17.8893 20.1751 20.1807 17.8893 17.9888 20.1807 20.1674 17.9888 18.0296 20.1674 20.1599 18.0296 18.0379 0 0.808123 0 0.529485 0.808123 1.66171 0.529485 1.09035 1.66171 2.41485 1.09035 1.67034 2.41485 3.08689 1.67034 2.21524 3.08689 3.69083 2.21524 2.71198 3.69083 4.24133 2.71198 3.15752 4.24133 4.75622 3.15752 3.54027 4.75622 5.27446 3.54027 3.84928 5.27446 5.83596 3.84928 4.20384 13.6979 14.2516 12.2627 12.5951 14.2516 14.7333 12.5951 12.8516 14.7333 15.1273 12.8516 13.1341 15.1273 15.4465 13.1341 13.4022 15.4465 15.7608 13.4022 13.6721 16.7121 16.8074 14.5148 14.5453 16.8074 16.5544 14.5453 15.4173 16.5544 17.0584 15.4173 13.1347 17.0584 17.193 13.1347 14.4977 17.193 17.463 14.4977 15.1437 17.463 17.725 15.1437 15.4704 17.725 17.8893 15.4704 15.7489 17.8893 17.9888 15.7489 15.9166 17.9888 18.0296 15.9166 15.9727 18.0296 18.0379 15.9727 15.9812 1.09035 1.67034 0.618446 1.03234 1.67034 2.21524 1.03234 1.43295 2.21524 2.71198 1.43295 1.83488 2.71198 3.15752 1.83488 2.19949 3.15752 3.54027 2.19949 2.50251 3.54027 3.84928 2.50251 2.72592 12.5951 12.8516 10.9217 10.9298 12.8516 13.1341 10.9298 10.9885 13.4022 13.6721 11.2636 11.5615 13.6721 13.9194 11.5615 11.8345 13.9194 14.2371 11.8345 12.1231 15.4173 13.1347 12.8092 13.5436 13.1347 14.4977 13.5436 13.1292 14.4977 15.1437 13.1292 12.9927 15.1437 15.4704 12.9927 13.4967 15.4704 15.7489 13.4967 13.8373 15.7489 15.9166 13.8373 13.9866 15.9166 15.9727 13.9866 14.0668 15.9727 15.9812 14.0668 14.0378 1.43295 1.83488 0.693897 1.04661 1.83488 2.19949 1.04661 1.3503 2.19949 2.50251 1.3503 1.65222 2.50251 2.72592 1.65222 1.95077 2.72592 2.9658 1.95077 2.24571 3.82591 3.43189 3.16361 3.33877 3.43189 5.13351 3.33877 3.88245 5.13351 6.30785 3.88245 3.56565 6.30785 6.95522 3.56565 5.13125 6.95522 7.64558 5.13125 5.55845 7.64558 8.33044 5.55845 7.01027 8.33044 9.18073 7.01027 7.89683 9.18073 9.85264 7.89683 9.47023 9.85264 11.8269 9.47023 9.13435 10.9217 10.9298 9.17978 9.10957 11.8345 12.1231 9.74305 10.0231 12.1231 12.3969 10.0231 10.3115 13.5436 13.1292 11.2218 11.4763 13.1292 12.9927 11.4763 11.8638 12.9927 13.4967 11.8638 12.0141 13.4967 13.8373 12.0141 11.9277 13.8373 13.9866 11.9277 12.2465 13.9866 14.0668 12.2465 12.2935 14.0668 14.0378 12.2935 12.2617 0 0.0710577 0 -0.622892 0.0710577 0.0925001 -0.622892 -0.585938 1.3503 1.65222 0.567495 0.893807 1.65222 1.95077 0.893807 1.19559 1.95077 2.24571 1.19559 1.52409 2.24571 2.54567 1.52409 1.85356 3.88245 3.56565 3.14097 3.30121 3.56565 5.13125 3.30121 2.05061 5.13125 5.55845 2.05061 4.40182 5.55845 7.01027 4.40182 4.17151 7.01027 7.89683 4.17151 8.32984 7.89683 9.47023 8.32984 7.37084 9.47023 9.13435 7.37084 7.43724 9.17036 9.17978 7.46029 7.46094 8.92449 9.10561 7.35185 6.55592 10.0231 10.3115 7.93639 8.25841 10.3115 10.5779 8.25841 8.5413 10.5779 10.8914 8.5413 8.84252 11.8638 12.0141 9.70182 9.69916 12.0141 11.9277 9.69916 10.3924 11.9277 12.2465 10.3924 10.0457 12.2465 12.2935 10.0457 10.9022 12.2935 12.2617 10.9022 10.6041 0 -0.622892 0 -0.0787687 -0.622892 -0.585938 -0.0787687 -0.22167 -0.585938 -0.208239 -0.22167 -0.415758 -0.208239 -0.039381 -0.415758 -0.81579 1.19559 1.52409 0.456665 0.80771 1.52409 1.85356 0.80771 1.12249 1.85356 2.15348 1.12249 1.46435 2.15348 2.49365 1.46435 1.80617 4.40182 4.17151 3.74612 3.8667 4.17151 8.32984 3.8667 5.67606 8.32984 7.37084 5.67606 5.73804 7.47113 7.35185 5.59498 5.5243 7.35185 6.55592 5.5243 5.59424 6.55592 7.6692 5.59424 5.26478 7.6692 7.65435 5.26478 5.44173 8.5413 8.84252 6.49523 6.81921 8.84252 9.12129 6.81921 7.08707 9.12129 9.42914 7.08707 7.37366 10.3924 10.0457 8.26149 8.42885 10.0457 10.9022 8.42885 8.7159 10.9022 10.6041 8.7159 11.7421 0 -0.0787687 0 -0.060888 -0.0787687 -0.22167 -0.060888 -0.205707 -0.22167 -0.415758 -0.205707 -0.266003 -0.415758 -0.81579 -0.266003 -0.309745 -0.81579 -0.337733 -0.309745 -0.660484 -0.337733 -0.175349 -0.660484 -0.988473 1.12249 1.46435 0.417744 0.787265 1.46435 1.80617 0.787265 1.09652 1.80617 2.12496 1.09652 1.43039 2.12496 2.48247 1.43039 1.7717 5.67606 5.73804 3.6302 4.12538 5.74778 5.75721 4.11437 4.12542 5.59498 5.5243 4.39056 4.0345 5.5243 5.59424 4.0345 3.99794 5.59424 5.26478 3.99794 4.27287 5.26478 5.44173 4.27287 4.5268 5.44173 5.9011 4.5268 4.17484 5.9011 6.14119 4.17484 3.82434 7.08707 7.37366 5.04069 5.31499 7.37366 7.64889 5.31499 5.60072 8.7159 11.7421 6.69287 5.8427 0 -0.060888 0 -0.0504933 -0.060888 -0.205707 -0.0504933 -0.111794 -0.205707 -0.266003 -0.111794 -0.172189 -0.266003 -0.309745 -0.172189 -0.305418 -0.309745 -0.660484 -0.305418 -0.331521 -0.660484 -0.988473 -0.331521 -0.335396 -0.988473 -0.421112 -0.335396 -0.564611 -0.421112 -0.264367 -0.564611 -0.921906 1.09652 1.43039 0.408917 0.757584 1.43039 1.7717 0.757584 1.02146 1.7717 2.09467 1.02146 1.29543 2.09467 2.43561 1.29543 1.57785 2.43561 2.81157 1.57785 1.86154 4.16784 4.39056 2.40051 1.40507 4.39056 4.0345 1.40507 2.27036 4.0345 3.99794 2.27036 2.63695 3.99794 4.27287 2.63695 2.86389 4.27287 4.5268 2.86389 3.06686 4.5268 4.17484 3.06686 3.48815 4.17484 3.82434 3.48815 4.38403 3.82434 4.60386 4.38403 1.96422 5.31499 5.60072 3.26135 3.56499 5.60072 5.87201 3.56499 3.81027 5.87201 6.18445 3.81027 4.07751 0 -0.0504933 0 -0.02243 -0.0504933 -0.111794 -0.02243 -0.0536974 -0.111794 -0.172189 -0.0536974 -0.0977545 -0.172189 -0.305418 -0.0977545 -0.132685 -0.305418 -0.331521 -0.132685 -0.172261 -0.331521 -0.335396 -0.172261 -0.325773 -0.335396 -0.564611 -0.325773 -0.398863 -0.564611 -0.921906 -0.398863 -0.681939 -0.921906 0.114075 -0.681939 -1.85347 0.114075 -0.166796 -1.85347 -0.594808 -0.166796 0.0457081 -0.594808 -0.880753 1.02146 1.29543 0.339662 0.56166 1.29543 1.57785 0.56166 0.751802 1.57785 1.86154 0.751802 0.904684 1.86154 2.09817 0.904684 1.02066 2.09817 2.3075 1.02066 1.0775 2.3075 2.45938 1.0775 1.07044 2.45938 2.48781 1.07044 1.06709 2.40051 1.40507 1.18708 1.30771 1.40507 2.27036 1.30771 1.18955 2.27036 2.63695 1.18955 1.29077 2.63695 2.86389 1.29077 1.43652 2.86389 3.06686 1.43652 1.58163 3.06686 3.48815 1.58163 1.6141 3.48815 4.38403 1.6141 1.49164 4.38403 1.96422 1.49164 1.58587 1.96422 2.95128 1.58587 0.720723 2.95128 2.975 0.720723 0.823394 3.81027 4.07751 1.77915 1.99163 4.07751 4.34429 1.99163 2.19783 4.34429 4.62756 2.19783 2.41572 0 -0.02243 0 6.01191e-12 -0.02243 -0.0536974 6.01191e-12 1.85798e-11 -0.0536974 -0.0977545 1.85798e-11 2.91825e-11 -0.0977545 -0.132685 2.91825e-11 3.95824e-11 -0.132685 -0.172261 3.95824e-11 4.65674e-11 -0.172261 -0.325773 4.65674e-11 4.42032e-11 -0.325773 -0.398863 4.42032e-11 4.53702e-11 -0.398863 -0.681939 4.53702e-11 4.01092e-11 -0.681939 -1.85347 4.01092e-11 2.55054e-11 -1.85347 -0.594808 2.55054e-11 3.88487e-11 -0.594808 -0.880753 3.88487e-11 2.4253e-11 -0.880753 -0.15527 2.4253e-11 -1.8069e-11 -0.15527 0.065204 -1.8069e-11 -3.43924e-11 0.56166 0.751802 -4.91309e-12 -2.68674e-12 0.751802 0.904684 -2.68674e-12 -1.54255e-12 0.904684 1.02066 -1.54255e-12 -9.52919e-13 1.02066 1.0775 -9.52919e-13 -8.22724e-13 1.0775 1.07044 -8.22724e-13 -7.74511e-13 1.09038 1.18708 -3.11921e-13 -8.10472e-11 1.18708 1.30771 -8.10472e-11 -7.52453e-10 1.30771 1.18955 -7.52453e-10 -3.58564e-10 1.18955 1.29077 -3.58564e-10 -7.86299e-10 1.29077 1.43652 -7.86299e-10 -6.57608e-10 1.43652 1.58163 -6.57608e-10 -1.55543e-13 1.58163 1.6141 -1.55543e-13 -1.33394e-10 1.6141 1.49164 -1.33394e-10 2.73576e-10 1.49164 1.58587 2.73576e-10 1.02854e-09 1.58587 0.720723 1.02854e-09 6.76062e-10 0.720723 0.823394 6.76062e-10 4.63857e-10 0.823394 1.28094 4.63857e-10 7.2439e-12 1.28094 1.53764 7.2439e-12 8.97611e-12 1.99163 2.19783 -1.44991e-12 -1.40894e-12 2.19783 2.41572 -1.40894e-12 -1.79494e-12 2.41572 2.42494 -1.79494e-12 -1.95821e-12 0 6.01191e-12 0 0.02243 6.01191e-12 1.85798e-11 0.02243 0.0536974 1.85798e-11 2.91825e-11 0.0536974 0.0977545 2.91825e-11 3.95824e-11 0.0977545 0.132685 3.95824e-11 4.65674e-11 0.132685 0.172261 4.65674e-11 4.42032e-11 0.172261 0.325773 4.42032e-11 4.53702e-11 0.325773 0.398863 4.53702e-11 4.01092e-11 0.398863 0.681939 4.01092e-11 2.55054e-11 0.681939 1.85347 2.55054e-11 3.88487e-11 1.85347 0.594808 3.88487e-11 2.4253e-11 0.594808 0.880753 2.4253e-11 -1.8069e-11 0.880753 0.15527 -1.8069e-11 -3.43924e-11 0.15527 -0.065204 -4.91309e-12 -2.68674e-12 -0.56166 -0.751802 -2.68674e-12 -1.54255e-12 -0.751802 -0.904684 -1.54255e-12 -9.52919e-13 -0.904684 -1.02066 -9.52919e-13 -8.22724e-13 -1.02066 -1.0775 -8.22724e-13 -7.74511e-13 -1.0775 -1.07044 -3.11921e-13 -8.10472e-11 -1.09038 -1.18708 -8.10472e-11 -7.52453e-10 -1.18708 -1.30771 -7.52453e-10 -3.58564e-10 -1.30771 -1.18955 -3.58564e-10 -7.86299e-10 -1.18955 -1.29077 -7.86299e-10 -6.57608e-10 -1.29077 -1.43652 -6.57608e-10 -1.55543e-13 -1.43652 -1.58163 -1.55543e-13 -1.33394e-10 -1.58163 -1.6141 -1.33394e-10 2.73576e-10 -1.6141 -1.49164 2.73576e-10 1.02854e-09 -1.49164 -1.58587 1.02854e-09 6.76062e-10 -1.58587 -0.720723 6.76062e-10 4.63857e-10 -0.720723 -0.823394 4.63857e-10 7.2439e-12 -0.823394 -1.28094 7.2439e-12 8.97611e-12 -1.28094 -1.53764 -1.44991e-12 -1.40894e-12 -1.99163 -2.19783 -1.40894e-12 -1.79494e-12 -2.19783 -2.41572 -1.79494e-12 -1.95821e-12 -2.41572 -2.42494 0 0.02243 0 0.0504933 0.02243 0.0536974 0.0504933 0.111794 0.0536974 0.0977545 0.111794 0.172189 0.0977545 0.132685 0.172189 0.305418 0.132685 0.172261 0.305418 0.331521 0.172261 0.325773 0.331521 0.335396 0.325773 0.398863 0.335396 0.564611 0.398863 0.681939 0.564611 0.921906 0.681939 1.85347 0.921906 -0.114075 1.85347 0.594808 -0.114075 0.166796 0.594808 0.880753 0.166796 -0.0457081 -0.339662 -0.56166 -1.02146 -1.29543 -0.56166 -0.751802 -1.29543 -1.57785 -0.751802 -0.904684 -1.57785 -1.86154 -0.904684 -1.02066 -1.86154 -2.09817 -1.02066 -1.0775 -2.09817 -2.3075 -1.0775 -1.07044 -2.3075 -2.45938 -1.07044 -1.06709 -2.45938 -2.48781 -1.18708 -1.30771 -2.40051 -1.40507 -1.30771 -1.18955 -1.40507 -2.27036 -1.18955 -1.29077 -2.27036 -2.63695 -1.29077 -1.43652 -2.63695 -2.86389 -1.43652 -1.58163 -2.86389 -3.06686 -1.58163 -1.6141 -3.06686 -3.48815 -1.6141 -1.49164 -3.48815 -4.38403 -1.49164 -1.58587 -4.38403 -1.96422 -1.58587 -0.720723 -1.96422 -2.95128 -0.720723 -0.823394 -2.95128 -2.975 -1.77915 -1.99163 -3.81027 -4.07751 -1.99163 -2.19783 -4.07751 -4.34429 -2.19783 -2.41572 -4.34429 -4.62756 0 0.0504933 0 0.060888 0.0504933 0.111794 0.060888 0.205707 0.111794 0.172189 0.205707 0.266003 0.172189 0.305418 0.266003 0.309745 0.305418 0.331521 0.309745 0.660484 0.331521 0.335396 0.660484 0.988473 0.335396 0.564611 0.988473 0.421112 0.564611 0.921906 0.421112 0.264367 -0.408917 -0.757584 -1.09652 -1.43039 -0.757584 -1.02146 -1.43039 -1.7717 -1.02146 -1.29543 -1.7717 -2.09467 -1.29543 -1.57785 -2.09467 -2.43561 -1.57785 -1.86154 -2.43561 -2.81157 -2.40051 -1.40507 -4.16784 -4.39056 -1.40507 -2.27036 -4.39056 -4.0345 -2.27036 -2.63695 -4.0345 -3.99794 -2.63695 -2.86389 -3.99794 -4.27287 -2.86389 -3.06686 -4.27287 -4.5268 -3.06686 -3.48815 -4.5268 -4.17484 -3.48815 -4.38403 -4.17484 -3.82434 -4.38403 -1.96422 -3.82434 -4.60386 -3.26135 -3.56499 -5.31499 -5.60072 -3.56499 -3.81027 -5.60072 -5.87201 -3.81027 -4.07751 -5.87201 -6.18445 0 0.060888 0 0.0787687 0.060888 0.205707 0.0787687 0.22167 0.205707 0.266003 0.22167 0.415758 0.266003 0.309745 0.415758 0.81579 0.309745 0.660484 0.81579 0.337733 0.660484 0.988473 0.337733 0.175349 -0.417744 -0.787265 -1.12249 -1.46435 -0.787265 -1.09652 -1.46435 -1.80617 -1.09652 -1.43039 -1.80617 -2.12496 -1.43039 -1.7717 -2.12496 -2.48247 -3.6302 -4.12538 -5.67606 -5.73804 -4.11437 -4.12542 -5.74778 -5.75721 -4.39056 -4.0345 -5.59498 -5.5243 -4.0345 -3.99794 -5.5243 -5.59424 -3.99794 -4.27287 -5.59424 -5.26478 -4.27287 -4.5268 -5.26478 -5.44173 -4.5268 -4.17484 -5.44173 -5.9011 -4.17484 -3.82434 -5.9011 -6.14119 -5.04069 -5.31499 -7.08707 -7.37366 -5.31499 -5.60072 -7.37366 -7.64889 -6.69287 -5.8427 -8.7159 -11.7421 0 0.0787687 0 0.622892 0.0787687 0.22167 0.622892 0.585938 0.22167 0.415758 0.585938 0.208239 0.415758 0.81579 0.208239 0.039381 -0.456665 -0.80771 -1.19559 -1.52409 -0.80771 -1.12249 -1.52409 -1.85356 -1.12249 -1.46435 -1.85356 -2.15348 -1.46435 -1.80617 -2.15348 -2.49365 -3.74612 -3.8667 -4.40182 -4.17151 -3.8667 -5.67606 -4.17151 -8.32984 -5.67606 -5.73804 -8.32984 -7.37084 -5.59498 -5.5243 -7.47113 -7.35185 -5.5243 -5.59424 -7.35185 -6.55592 -5.59424 -5.26478 -6.55592 -7.6692 -5.26478 -5.44173 -7.6692 -7.65435 -6.49523 -6.81921 -8.5413 -8.84252 -6.81921 -7.08707 -8.84252 -9.12129 -7.08707 -7.37366 -9.12129 -9.42914 -8.26149 -8.42885 -10.3924 -10.0457 -8.42885 -8.7159 -10.0457 -10.9022 -8.7159 -11.7421 -10.9022 -10.6041 0 0.622892 0 -0.0710577 0.622892 0.585938 -0.0710577 -0.0925001 -0.567495 -0.893807 -1.3503 -1.65222 -0.893807 -1.19559 -1.65222 -1.95077 -1.19559 -1.52409 -1.95077 -2.24571 -1.52409 -1.85356 -2.24571 -2.54567 -3.14097 -3.30121 -3.88245 -3.56565 -3.30121 -2.05061 -3.56565 -5.13125 -2.05061 -4.40182 -5.13125 -5.55845 -4.40182 -4.17151 -5.55845 -7.01027 -4.17151 -8.32984 -7.01027 -7.89683 -8.32984 -7.37084 -7.89683 -9.47023 -7.37084 -7.43724 -9.47023 -9.13435 -7.46029 -7.46094 -9.17036 -9.17978 -7.35185 -6.55592 -8.92449 -9.10561 -7.93639 -8.25841 -10.0231 -10.3115 -8.25841 -8.5413 -10.3115 -10.5779 -8.5413 -8.84252 -10.5779 -10.8914 -9.70182 -9.69916 -11.8638 -12.0141 -9.69916 -10.3924 -12.0141 -11.9277 -10.3924 -10.0457 -11.9277 -12.2465 -10.0457 -10.9022 -12.2465 -12.2935 -10.9022 -10.6041 -12.2935 -12.2617 -0.693897 -1.04661 -1.43295 -1.83488 -1.04661 -1.3503 -1.83488 -2.19949 -1.3503 -1.65222 -2.19949 -2.50251 -1.65222 -1.95077 -2.50251 -2.72592 -1.95077 -2.24571 -2.72592 -2.9658 -3.16361 -3.33877 -3.82591 -3.43189 -3.33877 -3.88245 -3.43189 -5.13351 -3.88245 -3.56565 -5.13351 -6.30785 -3.56565 -5.13125 -6.30785 -6.95522 -5.13125 -5.55845 -6.95522 -7.64558 -5.55845 -7.01027 -7.64558 -8.33044 -7.01027 -7.89683 -8.33044 -9.18073 -7.89683 -9.47023 -9.18073 -9.85264 -9.47023 -9.13435 -9.85264 -11.8269 -9.17978 -9.10957 -10.9217 -10.9298 -9.74305 -10.0231 -11.8345 -12.1231 -10.0231 -10.3115 -12.1231 -12.3969 -11.2218 -11.4763 -13.5436 -13.1292 -11.4763 -11.8638 -13.1292 -12.9927 -11.8638 -12.0141 -12.9927 -13.4967 -12.0141 -11.9277 -13.4967 -13.8373 -11.9277 -12.2465 -13.8373 -13.9866 -12.2465 -12.2935 -13.9866 -14.0668 -12.2935 -12.2617 -14.0668 -14.0378 -0.618446 -1.03234 -1.09035 -1.67034 -1.03234 -1.43295 -1.67034 -2.21524 -1.43295 -1.83488 -2.21524 -2.71198 -1.83488 -2.19949 -2.71198 -3.15752 -2.19949 -2.50251 -3.15752 -3.54027 -2.50251 -2.72592 -3.54027 -3.84928 -10.9217 -10.9298 -12.5951 -12.8516 -10.9298 -10.9885 -12.8516 -13.1341 -11.2636 -11.5615 -13.4022 -13.6721 -11.5615 -11.8345 -13.6721 -13.9194 -11.8345 -12.1231 -13.9194 -14.2371 -12.8092 -13.5436 -15.4173 -13.1347 -13.5436 -13.1292 -13.1347 -14.4977 -13.1292 -12.9927 -14.4977 -15.1437 -12.9927 -13.4967 -15.1437 -15.4704 -13.4967 -13.8373 -15.4704 -15.7489 -13.8373 -13.9866 -15.7489 -15.9166 -13.9866 -14.0668 -15.9166 -15.9727 -14.0668 -14.0378 -15.9727 -15.9812 0 -0.529485 0 -0.808123 -0.529485 -1.09035 -0.808123 -1.66171 -1.09035 -1.67034 -1.66171 -2.41485 -1.67034 -2.21524 -2.41485 -3.08689 -2.21524 -2.71198 -3.08689 -3.69083 -2.71198 -3.15752 -3.69083 -4.24133 -3.15752 -3.54027 -4.24133 -4.75622 -3.54027 -3.84928 -4.75622 -5.27446 -3.84928 -4.20384 -5.27446 -5.83596 -12.2627 -12.5951 -13.6979 -14.2516 -12.5951 -12.8516 -14.2516 -14.7333 -12.8516 -13.1341 -14.7333 -15.1273 -13.1341 -13.4022 -15.1273 -15.4465 -13.4022 -13.6721 -15.4465 -15.7608 -14.5148 -14.5453 -16.7121 -16.8074 -14.5453 -15.4173 -16.8074 -16.5544 -15.4173 -13.1347 -16.5544 -17.0584 -13.1347 -14.4977 -17.0584 -17.193 -14.4977 -15.1437 -17.193 -17.463 -15.1437 -15.4704 -17.463 -17.725 -15.4704 -15.7489 -17.725 -17.8893 -15.7489 -15.9166 -17.8893 -17.9888 -15.9166 -15.9727 -17.9888 -18.0296 -15.9727 -15.9812 -18.0296 -18.0379 0 -0.808123 0 -1.40963 -0.808123 -1.66171 -1.40963 -2.47391 -1.66171 -2.41485 -2.47391 -3.35635 -2.41485 -3.08689 -3.35635 -4.11326 -3.08689 -3.69083 -4.11326 -4.78229 -3.69083 -4.24133 -4.78229 -5.40242 -4.24133 -4.75622 -5.40242 -6.02179 -4.75622 -5.27446 -6.02179 -6.67353 -5.27446 -5.83596 -6.67353 -7.33608 -5.83596 -6.40752 -7.33608 -7.97382 -6.40752 -7.01019 -7.97382 -8.57176 -7.01019 -7.62528 -8.57176 -9.16194 -7.62528 -8.2405 -9.16194 -9.75623 -8.2405 -8.855 -9.75623 -10.3546 -8.855 -9.4691 -10.3546 -10.9569 -9.4691 -10.0828 -10.9569 -11.563 -10.0828 -10.6961 -11.563 -12.173 -10.6961 -11.309 -12.173 -12.787 -11.309 -11.9216 -12.787 -13.4047 -11.9216 -12.5344 -13.4047 -14.0255 -12.5344 -13.1381 -14.0255 -14.6559 -13.1381 -13.6979 -14.6559 -15.3371 -13.6979 -14.2516 -15.3371 -16.0635 -14.2516 -14.7333 -16.0635 -16.759 -14.7333 -15.1273 -16.759 -17.277 -15.1273 -15.4465 -17.277 -17.5549 -16.0719 -16.2365 -18.4398 -18.174 -16.2365 -16.7121 -18.174 -17.642 -16.7121 -16.8074 -17.642 -18.576 -16.8074 -16.5544 -18.576 -19.1541 -16.5544 -17.0584 -19.1541 -19.5524 -17.0584 -17.193 -19.5524 -19.988 -17.193 -17.463 -19.988 -20.0922 -17.463 -17.725 -20.0922 -20.1376 -17.725 -17.8893 -20.1376 -20.1751 -17.8893 -17.9888 -20.1751 -20.1807 -17.9888 -18.0296 -20.1807 -20.1674 -18.0296 -18.0379 -20.1674 -20.1599 17.5549 17.6313 16.5007 16.5952 17.6313 17.6524 16.5952 16.6757 16.5007 16.5952 15.4465 15.6037 16.5952 16.6757 15.6037 15.7608 17.6524 17.1747 16.6757 17.0017 17.1747 18.4398 17.0017 17.2559 16.6757 17.0017 15.7608 15.9693 17.0017 17.2559 15.9693 16.0719 5.83596 6.12174 5.0199 5.31219 6.12174 6.40752 5.31219 5.61055 5.0199 5.31219 4.20384 4.43573 5.31219 5.61055 4.43573 4.77236 6.40752 6.70885 5.61055 5.91637 6.70885 7.01019 5.91637 6.22993 5.61055 5.91637 4.77236 5.12248 5.91637 6.22993 5.12248 5.45049 7.01019 7.31773 6.22993 6.54375 7.31773 7.62528 6.54375 6.85719 6.22993 6.54375 5.45049 5.77123 6.54375 6.85719 5.77123 6.09 7.62528 7.93289 6.85719 7.17006 7.93289 8.2405 7.17006 7.48224 6.85719 7.17006 6.09 6.40791 7.17006 7.48224 6.40791 6.7249 8.2405 8.54775 7.48224 7.7939 8.54775 8.855 7.7939 8.10482 7.48224 7.7939 6.7249 7.04076 7.7939 8.10482 7.04076 7.35552 8.855 9.16205 8.10482 8.41519 9.16205 9.4691 8.41519 8.72484 8.10482 8.41519 7.35552 7.66906 8.41519 8.72484 7.66906 7.98147 9.4691 9.77595 8.72484 9.03394 9.77595 10.0828 9.03394 9.34231 8.72484 9.03394 7.98147 8.29266 9.03394 9.34231 8.29266 8.60271 10.0828 10.3894 9.34231 9.65013 10.3894 10.6961 9.65013 9.95723 9.34231 9.65013 8.60271 8.91156 9.65013 9.95723 8.91156 9.21927 10.6961 11.0025 9.95723 10.2638 11.0025 11.309 10.2638 10.5696 9.95723 10.2638 9.21927 9.52578 10.2638 10.5696 9.52578 9.83115 11.309 11.6153 10.5696 10.8749 11.6153 11.9216 10.8749 11.1794 10.5696 10.8749 9.83115 10.1353 10.8749 11.1794 10.1353 10.4381 11.9216 12.228 11.1794 11.4834 12.228 12.5344 11.4834 11.7863 11.1794 11.4834 10.4381 10.7393 11.4834 11.7863 10.7393 11.0392 12.5344 12.8363 11.7863 12.0891 12.8363 13.1381 12.0891 12.3869 11.7863 12.0891 11.0392 11.3389 12.0891 12.3869 11.3389 11.653 13.1381 13.418 12.3869 12.6815 13.418 13.6979 12.6815 1