# vtk DataFile Version 3.0
#This file was generated by the deal.II library on 2015/9/2 at 7:54:23
ASCII
DATASET UNSTRUCTURED_GRID

POINTS 41912 double
0 0 0
0.05 0 0
0 0.05 0
0.05 0.05 0
0.05 0 0
0.1 0 0
0.05 0.05 0
0.1 0.05 0
0.1 0 0
0.15 0 0
0.1 0.05 0
0.15 0.05 0
0.15 0 0
0.2 0 0
0.15 0.05 0
0.2 0.05 0
0.2 0 0
0.25 0 0
0.2 0.05 0
0.25 0.05 0
0.25 0 0
0.3 0 0
0.25 0.05 0
0.3 0.05 0
0.3 0 0
0.35 0 0
0.3 0.05 0
0.35 0.05 0
0.35 0 0
0.4 0 0
0.35 0.05 0
0.4 0.05 0
0.4 0 0
0.45 0 0
0.4 0.05 0
0.45 0.05 0
0.45 0 0
0.5 0 0
0.45 0.05 0
0.5 0.05 0
0.5 0 0
0.55 0 0
0.5 0.05 0
0.55 0.05 0
0.55 0 0
0.6 0 0
0.55 0.05 0
0.6 0.05 0
0.6 0 0
0.65 0 0
0.6 0.05 0
0.65 0.05 0
0.65 0 0
0.7 0 0
0.65 0.05 0
0.7 0.05 0
0.7 0 0
0.75 0 0
0.7 0.05 0
0.75 0.05 0
0.75 0 0
0.8 0 0
0.75 0.05 0
0.8 0.05 0
0.8 0 0
0.85 0 0
0.8 0.05 0
0.85 0.05 0
0.85 0 0
0.9 0 0
0.85 0.05 0
0.9 0.05 0
0.9 0 0
0.95 0 0
0.9 0.05 0
0.95 0.05 0
0.95 0 0
1 0 0
0.95 0.05 0
1 0.05 0
1 0 0
1.05 0 0
1 0.05 0
1.05 0.05 0
1.05 0 0
1.1 0 0
1.05 0.05 0
1.1 0.05 0
1.1 0 0
1.15 0 0
1.1 0.05 0
1.15 0.05 0
1.15 0 0
1.2 0 0
1.15 0.05 0
1.2 0.05 0
1.2 0 0
1.25 0 0
1.2 0.05 0
1.25 0.05 0
1.45 0 0
1.5 0 0
1.45 0.05 0
1.5 0.05 0
1.5 0 0
1.55 0 0
1.5 0.05 0
1.55 0.05 0
1.55 0 0
1.6 0 0
1.55 0.05 0
1.6 0.05 0
1.6 0 0
1.65 0 0
1.6 0.05 0
1.65 0.05 0
1.65 0 0
1.7 0 0
1.65 0.05 0
1.7 0.05 0
1.7 0 0
1.75 0 0
1.7 0.05 0
1.75 0.05 0
1.75 0 0
1.8 0 0
1.75 0.05 0
1.8 0.05 0
1.8 0 0
1.85 0 0
1.8 0.05 0
1.85 0.05 0
1.85 0 0
1.9 0 0
1.85 0.05 0
1.9 0.05 0
1.9 0 0
1.95 0 0
1.9 0.05 0
1.95 0.05 0
1.95 0 0
2 0 0
1.95 0.05 0
2 0.05 0
0 0.05 0
0.05 0.05 0
0 0.1 0
0.05 0.1 0
0.05 0.05 0
0.1 0.05 0
0.05 0.1 0
0.1 0.1 0
0.1 0.05 0
0.15 0.05 0
0.1 0.1 0
0.15 0.1 0
0.15 0.05 0
0.2 0.05 0
0.15 0.1 0
0.2 0.1 0
0.2 0.05 0
0.25 0.05 0
0.2 0.1 0
0.25 0.1 0
0.25 0.05 0
0.3 0.05 0
0.25 0.1 0
0.3 0.1 0
0.3 0.05 0
0.35 0.05 0
0.3 0.1 0
0.35 0.1 0
1.15 0.05 0
1.2 0.05 0
1.15 0.1 0
1.2 0.1 0
1.2 0.05 0
1.25 0.05 0
1.2 0.1 0
1.25 0.1 0
1.55 0.05 0
1.6 0.05 0
1.55 0.1 0
1.6 0.1 0
1.6 0.05 0
1.65 0.05 0
1.6 0.1 0
1.65 0.1 0
1.65 0.05 0
1.7 0.05 0
1.65 0.1 0
1.7 0.1 0
1.7 0.05 0
1.75 0.05 0
1.7 0.1 0
1.75 0.1 0
1.75 0.05 0
1.8 0.05 0
1.75 0.1 0
1.8 0.1 0
1.8 0.05 0
1.85 0.05 0
1.8 0.1 0
1.85 0.1 0
1.85 0.05 0
1.9 0.05 0
1.85 0.1 0
1.9 0.1 0
1.9 0.05 0
1.95 0.05 0
1.9 0.1 0
1.95 0.1 0
1.95 0.05 0
2 0.05 0
1.95 0.1 0
2 0.1 0
0.15 0.1 0
0.2 0.1 0
0.15 0.15 0
0.2 0.15 0
0.2 0.1 0
0.25 0.1 0
0.2 0.15 0
0.25 0.15 0
0.25 0.1 0
0.3 0.1 0
0.25 0.15 0
0.3 0.15 0
0.3 0.1 0
0.35 0.1 0
0.3 0.15 0
0.35 0.15 0
1.65 0.1 0
1.7 0.1 0
1.65 0.15 0
1.7 0.15 0
1.7 0.1 0
1.75 0.1 0
1.7 0.15 0
1.75 0.15 0
1.75 0.1 0
1.8 0.1 0
1.75 0.15 0
1.8 0.15 0
1.8 0.1 0
1.85 0.1 0
1.8 0.15 0
1.85 0.15 0
1.85 0.1 0
1.9 0.1 0
1.85 0.15 0
1.9 0.15 0
1.9 0.1 0
1.95 0.1 0
1.9 0.15 0
1.95 0.15 0
1.95 0.1 0
2 0.1 0
1.95 0.15 0
2 0.15 0
0.3 0.15 0
0.35 0.15 0
0.3 0.2 0
0.35 0.2 0
1.75 0.15 0
1.8 0.15 0
1.75 0.2 0
1.8 0.2 0
1.8 0.15 0
1.85 0.15 0
1.8 0.2 0
1.85 0.2 0
1.85 0.15 0
1.9 0.15 0
1.85 0.2 0
1.9 0.2 0
1.9 0.15 0
1.95 0.15 0
1.9 0.2 0
1.95 0.2 0
1.95 0.15 0
2 0.15 0
1.95 0.2 0
2 0.2 0
0.4 0.2 0
0.45 0.2 0
0.4 0.25 0
0.45 0.25 0
0.8 0.2 0
0.85 0.2 0
0.8 0.25 0
0.85 0.25 0
0.85 0.2 0
0.9 0.2 0
0.85 0.25 0
0.9 0.25 0
0.9 0.2 0
0.95 0.2 0
0.9 0.25 0
0.95 0.25 0
0.95 0.2 0
1 0.2 0
0.95 0.25 0
1 0.25 0
1.8 0.2 0
1.85 0.2 0
1.8 0.25 0
1.85 0.25 0
1.85 0.2 0
1.9 0.2 0
1.85 0.25 0
1.9 0.25 0
1.9 0.2 0
1.95 0.2 0
1.9 0.25 0
1.95 0.25 0
1.95 0.2 0
2 0.2 0
1.95 0.25 0
2 0.25 0
0 0.25 0
0.05 0.25 0
0 0.3 0
0.05 0.3 0
0.05 0.25 0
0.1 0.25 0
0.05 0.3 0
0.1 0.3 0
0.1 0.25 0
0.15 0.25 0
0.1 0.3 0
0.15 0.3 0
0.95 0.25 0
1 0.25 0
0.95 0.3 0
1 0.3 0
1.25 0.25 0
1.3 0.25 0
1.25 0.3 0
1.3 0.3 0
1.3 0.25 0
1.35 0.25 0
1.3 0.3 0
1.35 0.3 0
1.9 0.25 0
1.95 0.25 0
1.9 0.3 0
1.95 0.3 0
1.95 0.25 0
2 0.25 0
1.95 0.3 0
2 0.3 0
0 0.3 0
0.05 0.3 0
0 0.35 0
0.05 0.35 0
0.05 0.3 0
0.1 0.3 0
0.05 0.35 0
0.1 0.35 0
0.1 0.3 0
0.15 0.3 0
0.1 0.35 0
0.15 0.35 0
0.15 0.3 0
0.2 0.3 0
0.15 0.35 0
0.2 0.35 0
0.2 0.3 0
0.25 0.3 0
0.2 0.35 0
0.25 0.35 0
0.6 0.3 0
0.65 0.3 0
0.6 0.35 0
0.65 0.35 0
1.2 0.3 0
1.25 0.3 0
1.2 0.35 0
1.25 0.35 0
1.25 0.3 0
1.3 0.3 0
1.25 0.35 0
1.3 0.35 0
1.3 0.3 0
1.35 0.3 0
1.3 0.35 0
1.35 0.35 0
1.35 0.3 0
1.4 0.3 0
1.35 0.35 0
1.4 0.35 0
0 0.35 0
0.05 0.35 0
0 0.4 0
0.05 0.4 0
0.05 0.35 0
0.1 0.35 0
0.05 0.4 0
0.1 0.4 0
0.1 0.35 0
0.15 0.35 0
0.1 0.4 0
0.15 0.4 0
0.15 0.35 0
0.2 0.35 0
0.15 0.4 0
0.2 0.4 0
0.2 0.35 0
0.25 0.35 0
0.2 0.4 0
0.25 0.4 0
0.25 0.35 0
0.3 0.35 0
0.25 0.4 0
0.3 0.4 0
0.3 0.35 0
0.35 0.35 0
0.3 0.4 0
0.35 0.4 0
0.7 0.35 0
0.75 0.35 0
0.7 0.4 0
0.75 0.4 0
1.2 0.35 0
1.25 0.35 0
1.2 0.4 0
1.25 0.4 0
1.25 0.35 0
1.3 0.35 0
1.25 0.4 0
1.3 0.4 0
1.3 0.35 0
1.35 0.35 0
1.3 0.4 0
1.35 0.4 0
1.35 0.35 0
1.4 0.35 0
1.35 0.4 0
1.4 0.4 0
1.4 0.35 0
1.45 0.35 0
1.4 0.4 0
1.45 0.4 0
1.45 0.35 0
1.5 0.35 0
1.45 0.4 0
1.5 0.4 0
0 0.4 0
0.05 0.4 0
0 0.45 0
0.05 0.45 0
0.05 0.4 0
0.1 0.4 0
0.05 0.45 0
0.1 0.45 0
0.1 0.4 0
0.15 0.4 0
0.1 0.45 0
0.15 0.45 0
0.15 0.4 0
0.2 0.4 0
0.15 0.45 0
0.2 0.45 0
0.2 0.4 0
0.25 0.4 0
0.2 0.45 0
0.25 0.45 0
0.25 0.4 0
0.3 0.4 0
0.25 0.45 0
0.3 0.45 0
0.3 0.4 0
0.35 0.4 0
0.3 0.45 0
0.35 0.45 0
0.35 0.4 0
0.4 0.4 0
0.35 0.45 0
0.4 0.45 0
0.4 0.4 0
0.45 0.4 0
0.4 0.45 0
0.45 0.45 0
0.75 0.4 0
0.8 0.4 0
0.75 0.45 0
0.8 0.45 0
0.8 0.4 0
0.85 0.4 0
0.8 0.45 0
0.85 0.45 0
0.85 0.4 0
0.9 0.4 0
0.85 0.45 0
0.9 0.45 0
1.15 0.4 0
1.2 0.4 0
1.15 0.45 0
1.2 0.45 0
1.2 0.4 0
1.25 0.4 0
1.2 0.45 0
1.25 0.45 0
1.25 0.4 0
1.3 0.4 0
1.25 0.45 0
1.3 0.45 0
1.3 0.4 0
1.35 0.4 0
1.3 0.45 0
1.35 0.45 0
1.35 0.4 0
1.4 0.4 0
1.35 0.45 0
1.4 0.45 0
1.4 0.4 0
1.45 0.4 0
1.4 0.45 0
1.45 0.45 0
1.45 0.4 0
1.5 0.4 0
1.45 0.45 0
1.5 0.45 0
1.5 0.4 0
1.55 0.4 0
1.5 0.45 0
1.55 0.45 0
1.55 0.4 0
1.6 0.4 0
1.55 0.45 0
1.6 0.45 0
0 0.45 0
0.05 0.45 0
0 0.5 0
0.05 0.5 0
0.05 0.45 0
0.1 0.45 0
0.05 0.5 0
0.1 0.5 0
0.1 0.45 0
0.15 0.45 0
0.1 0.5 0
0.15 0.5 0
0.15 0.45 0
0.2 0.45 0
0.15 0.5 0
0.2 0.5 0
0.2 0.45 0
0.25 0.45 0
0.2 0.5 0
0.25 0.5 0
0.25 0.45 0
0.3 0.45 0
0.25 0.5 0
0.3 0.5 0
0.3 0.45 0
0.35 0.45 0
0.3 0.5 0
0.35 0.5 0
0.35 0.45 0
0.4 0.45 0
0.35 0.5 0
0.4 0.5 0
0.4 0.45 0
0.45 0.45 0
0.4 0.5 0
0.45 0.5 0
0.45 0.45 0
0.5 0.45 0
0.45 0.5 0
0.5 0.5 0
0.5 0.45 0
0.55 0.45 0
0.5 0.5 0
0.55 0.5 0
0.8 0.45 0
0.85 0.45 0
0.8 0.5 0
0.85 0.5 0
0.85 0.45 0
0.9 0.45 0
0.85 0.5 0
0.9 0.5 0
0.9 0.45 0
0.95 0.45 0
0.9 0.5 0
0.95 0.5 0
0.95 0.45 0
1 0.45 0
0.95 0.5 0
1 0.5 0
1.15 0.45 0
1.2 0.45 0
1.15 0.5 0
1.2 0.5 0
1.2 0.45 0
1.25 0.45 0
1.2 0.5 0
1.25 0.5 0
1.25 0.45 0
1.3 0.45 0
1.25 0.5 0
1.3 0.5 0
1.3 0.45 0
1.35 0.45 0
1.3 0.5 0
1.35 0.5 0
1.35 0.45 0
1.4 0.45 0
1.35 0.5 0
1.4 0.5 0
1.4 0.45 0
1.45 0.45 0
1.4 0.5 0
1.45 0.5 0
1.45 0.45 0
1.5 0.45 0
1.45 0.5 0
1.5 0.5 0
1.5 0.45 0
1.55 0.45 0
1.5 0.5 0
1.55 0.5 0
1.55 0.45 0
1.6 0.45 0
1.55 0.5 0
1.6 0.5 0
1.6 0.45 0
1.65 0.45 0
1.6 0.5 0
1.65 0.5 0
1.9 0.45 0
1.95 0.45 0
1.9 0.5 0
1.95 0.5 0
0 0.5 0
0.05 0.5 0
0 0.55 0
0.05 0.55 0
0.05 0.5 0
0.1 0.5 0
0.05 0.55 0
0.1 0.55 0
0.1 0.5 0
0.15 0.5 0
0.1 0.55 0
0.15 0.55 0
0.15 0.5 0
0.2 0.5 0
0.15 0.55 0
0.2 0.55 0
0.2 0.5 0
0.25 0.5 0
0.2 0.55 0
0.25 0.55 0
0.25 0.5 0
0.3 0.5 0
0.25 0.55 0
0.3 0.55 0
0.3 0.5 0
0.35 0.5 0
0.3 0.55 0
0.35 0.55 0
0.35 0.5 0
0.4 0.5 0
0.35 0.55 0
0.4 0.55 0
0.4 0.5 0
0.45 0.5 0
0.4 0.55 0
0.45 0.55 0
0.45 0.5 0
0.5 0.5 0
0.45 0.55 0
0.5 0.55 0
0.5 0.5 0
0.55 0.5 0
0.5 0.55 0
0.55 0.55 0
0.8 0.5 0
0.85 0.5 0
0.8 0.55 0
0.85 0.55 0
0.85 0.5 0
0.9 0.5 0
0.85 0.55 0
0.9 0.55 0
0.9 0.5 0
0.95 0.5 0
0.9 0.55 0
0.95 0.55 0
0.95 0.5 0
1 0.5 0
0.95 0.55 0
1 0.55 0
1.15 0.5 0
1.2 0.5 0
1.15 0.55 0
1.2 0.55 0
1.2 0.5 0
1.25 0.5 0
1.2 0.55 0
1.25 0.55 0
1.25 0.5 0
1.3 0.5 0
1.25 0.55 0
1.3 0.55 0
1.3 0.5 0
1.35 0.5 0
1.3 0.55 0
1.35 0.55 0
1.35 0.5 0
1.4 0.5 0
1.35 0.55 0
1.4 0.55 0
1.4 0.5 0
1.45 0.5 0
1.4 0.55 0
1.45 0.55 0
1.45 0.5 0
1.5 0.5 0
1.45 0.55 0
1.5 0.55 0
1.5 0.5 0
1.55 0.5 0
1.5 0.55 0
1.55 0.55 0
1.55 0.5 0
1.6 0.5 0
1.55 0.55 0
1.6 0.55 0
1.6 0.5 0
1.65 0.5 0
1.6 0.55 0
1.65 0.55 0
1.9 0.5 0
1.95 0.5 0
1.9 0.55 0
1.95 0.55 0
0 0.55 0
0.05 0.55 0
0 0.6 0
0.05 0.6 0
0.05 0.55 0
0.1 0.55 0
0.05 0.6 0
0.1 0.6 0
0.1 0.55 0
0.15 0.55 0
0.1 0.6 0
0.15 0.6 0
0.15 0.55 0
0.2 0.55 0
0.15 0.6 0
0.2 0.6 0
0.2 0.55 0
0.25 0.55 0
0.2 0.6 0
0.25 0.6 0
0.25 0.55 0
0.3 0.55 0
0.25 0.6 0
0.3 0.6 0
0.3 0.55 0
0.35 0.55 0
0.3 0.6 0
0.35 0.6 0
0.35 0.55 0
0.4 0.55 0
0.35 0.6 0
0.4 0.6 0
0.4 0.55 0
0.45 0.55 0
0.4 0.6 0
0.45 0.6 0
0.75 0.55 0
0.8 0.55 0
0.75 0.6 0
0.8 0.6 0
0.8 0.55 0
0.85 0.55 0
0.8 0.6 0
0.85 0.6 0
0.85 0.55 0
0.9 0.55 0
0.85 0.6 0
0.9 0.6 0
1.15 0.55 0
1.2 0.55 0
1.15 0.6 0
1.2 0.6 0
1.2 0.55 0
1.25 0.55 0
1.2 0.6 0
1.25 0.6 0
1.25 0.55 0
1.3 0.55 0
1.25 0.6 0
1.3 0.6 0
1.3 0.55 0
1.35 0.55 0
1.3 0.6 0
1.35 0.6 0
1.35 0.55 0
1.4 0.55 0
1.35 0.6 0
1.4 0.6 0
1.4 0.55 0
1.45 0.55 0
1.4 0.6 0
1.45 0.6 0
1.45 0.55 0
1.5 0.55 0
1.45 0.6 0
1.5 0.6 0
1.5 0.55 0
1.55 0.55 0
1.5 0.6 0
1.55 0.6 0
1.55 0.55 0
1.6 0.55 0
1.55 0.6 0
1.6 0.6 0
0 0.6 0
0.05 0.6 0
0 0.65 0
0.05 0.65 0
0.05 0.6 0
0.1 0.6 0
0.05 0.65 0
0.1 0.65 0
0.1 0.6 0
0.15 0.6 0
0.1 0.65 0
0.15 0.65 0
0.15 0.6 0
0.2 0.6 0
0.15 0.65 0
0.2 0.65 0
0.2 0.6 0
0.25 0.6 0
0.2 0.65 0
0.25 0.65 0
0.25 0.6 0
0.3 0.6 0
0.25 0.65 0
0.3 0.65 0
0.3 0.6 0
0.35 0.6 0
0.3 0.65 0
0.35 0.65 0
0.7 0.6 0
0.75 0.6 0
0.7 0.65 0
0.75 0.65 0
1.2 0.6 0
1.25 0.6 0
1.2 0.65 0
1.25 0.65 0
1.25 0.6 0
1.3 0.6 0
1.25 0.65 0
1.3 0.65 0
1.3 0.6 0
1.35 0.6 0
1.3 0.65 0
1.35 0.65 0
1.35 0.6 0
1.4 0.6 0
1.35 0.65 0
1.4 0.65 0
1.4 0.6 0
1.45 0.6 0
1.4 0.65 0
1.45 0.65 0
1.45 0.6 0
1.5 0.6 0
1.45 0.65 0
1.5 0.65 0
0 0.65 0
0.05 0.65 0
0 0.7 0
0.05 0.7 0
0.05 0.65 0
0.1 0.65 0
0.05 0.7 0
0.1 0.7 0
0.1 0.65 0
0.15 0.65 0
0.1 0.7 0
0.15 0.7 0
0.15 0.65 0
0.2 0.65 0
0.15 0.7 0
0.2 0.7 0
0.2 0.65 0
0.25 0.65 0
0.2 0.7 0
0.25 0.7 0
0.6 0.65 0
0.65 0.65 0
0.6 0.7 0
0.65 0.7 0
1.2 0.65 0
1.25 0.65 0
1.2 0.7 0
1.25 0.7 0
1.25 0.65 0
1.3 0.65 0
1.25 0.7 0
1.3 0.7 0
1.3 0.65 0
1.35 0.65 0
1.3 0.7 0
1.35 0.7 0
[...]
POINT_DATA 41912
SCALARS x_displacement double 1
LOOKUP_TABLE default
0 1.32276 0 0.774558 1.32276 2.33009 0.774558 1.59416 2.33009 3.17529 1.59416 2.32125 3.17529 3.90506 2.32125 2.9695 3.90506 4.54829 2.9695 3.55289 4.54829 5.1346 3.55289 4.08548 5.1346 5.69183 4.08548 4.58599 5.69183 6.23632 4.58599 5.07447 6.23632 6.77512 5.07447 5.55652 6.77512 7.31065 5.55652 6.03864 7.31065 7.8463 6.03864 6.52158 7.8463 8.38286 6.52158 7.0049 8.38286 8.91581 7.0049 7.49153 8.91581 9.43667 7.49153 7.98007 9.43667 9.94394 7.98007 8.4705 9.94394 10.4432 8.4705 8.96634 10.4432 10.938 8.96634 9.46401 10.938 11.4302 9.46401 9.96244 11.4302 11.9247 9.96244 10.4605 11.9247 12.4266 10.4605 10.9564 12.4266 12.9456 10.9564 11.4437 12.9456 13.5014 11.4437 11.9182 13.5014 14.1022 11.9182 12.3814 14.1022 14.6916 12.3814 12.8304 14.6916 15.1538 12.8304 13.2225 17.0247 17.2123 14.1015 15.9648 17.2123 17.873 15.9648 15.5489 17.873 18.0295 15.5489 15.7088 18.0295 18.1588 15.7088 15.9142 18.1588 18.2687 15.9142 16.0764 18.2687 18.3409 16.0764 16.196 18.3409 18.3741 16.196 16.2755 18.3741 18.3763 16.2755 16.3262 18.3763 18.3626 16.3262 16.3511 18.3626 18.3481 16.3511 16.359 18.3481 18.3433 16.359 16.3614 0 0.774558 0 0.53204 0.774558 1.59416 0.53204 1.08994 1.59416 2.32125 1.08994 1.65135 2.32125 2.9695 1.65135 2.18002 2.9695 3.55289 2.18002 2.67215 3.55289 4.08548 2.67215 3.1215 4.08548 4.58599 3.1215 3.52287 12.3814 12.8304 10.7585 11.1099 12.8304 13.2225 11.1099 11.4268 15.5489 15.7088 13.0943 13.4677 15.7088 15.9142 13.4677 13.7593 15.9142 16.0764 13.7593 13.9817 16.0764 16.196 13.9817 14.1256 16.196 16.2755 14.1256 14.2481 16.2755 16.3262 14.2481 14.3331 16.3262 16.3511 14.3331 14.3795 16.3511 16.359 14.3795 14.3941 16.359 16.3614 14.3941 14.3985 1.65135 2.18002 1.06118 1.47886 2.18002 2.67215 1.47886 1.88461 2.67215 3.1215 1.88461 2.25903 3.1215 3.52287 2.25903 2.5856 13.7593 13.9817 11.7809 11.9203 13.9817 14.1256 11.9203 12.1324 14.1256 14.2481 12.1324 12.3011 14.2481 14.3331 12.3011 12.4229 14.3331 14.3795 12.4229 12.4746 14.3795 14.3941 12.4746 12.4895 14.3941 14.3985 12.4895 12.4899 2.25903 2.5856 1.48401 1.80416 12.1324 12.3011 10.2523 10.4945 12.3011 12.4229 10.4945 10.5838 12.4229 12.4746 10.5838 10.6533 12.4746 12.4895 10.6533 10.6725 12.4895 12.4899 10.6725 10.6627 2.11458 2.41669 1.38167 1.6908 5.22572 5.90402 5.12369 4.94488 5.90402 6.3231 4.94488 5.43327 6.3231 6.76399 5.43327 5.73559 6.76399 7.11052 5.73559 6.04894 10.4945 10.5838 8.5933 8.80653 10.5838 10.6533 8.80653 8.93033 10.6533 10.6725 8.93033 8.96547 10.6725 10.6627 8.96547 8.94004 0 -0.3332 0 -0.223117 -0.3332 -1.50847 -0.223117 -0.181278 -1.50847 -0.20783 -0.181278 -0.392922 5.73559 6.04894 4.64133 4.96697 6.05573 5.82209 4.92716 4.93608 5.82209 6.17146 4.93608 5.00061 8.93033 8.96547 7.31082 7.3884 8.96547 8.94004 7.3884 7.32025 0 -0.223117 0 -0.0240804 -0.223117 -0.181278 -0.0240804 -0.0843753 -0.181278 -0.392922 -0.0843753 -0.097436 -0.392922 -0.173074 -0.097436 -0.12561 -0.173074 -0.0149835 -0.12561 -0.0882829 1.88849 2.19631 1.16855 1.46242 4.96523 4.92716 3.55036 3.622 4.92716 4.93608 3.622 3.6783 4.93608 5.00061 3.6783 3.6939 5.00061 5.05624 3.6939 3.6657 0 -0.0240804 0 -0.00744509 -0.0240804 -0.0843753 -0.00744509 -0.0144787 -0.0843753 -0.097436 -0.0144787 -0.0438942 -0.097436 -0.12561 -0.0438942 -0.0705675 -0.12561 -0.0882829 -0.0705675 -0.100211 -0.0882829 -0.0551716 -0.100211 -0.136228 -0.0551716 -0.0463702 -0.136228 -0.216876 1.74811 2.04098 1.00341 1.24917 3.55036 3.622 2.30841 2.34188 3.622 3.6783 2.34188 2.40121 3.6783 3.6939 2.40121 2.41687 3.6939 3.6657 2.41687 2.39536 3.6657 3.58574 2.39536 2.33485 3.58574 3.09003 2.33485 2.46702 0 -0.00744509 0 0.00045463 -0.00744509 -0.0144787 0.00045463 -0.0039386 -0.0144787 -0.0438942 -0.0039386 -0.0162667 -0.0438942 -0.0705675 -0.0162667 -0.0375295 -0.0705675 -0.100211 -0.0375295 -0.0638168 -0.100211 -0.136228 -0.0638168 -0.105334 -0.136228 -0.216876 -0.105334 -0.190711 -0.216876 -0.437234 -0.190711 -0.348265 -0.437234 -1.61312 -0.348265 -0.211454 1.24917 1.49898 0.524665 0.705269 1.49898 1.73597 0.705269 0.845668 1.73597 1.94456 0.845668 0.946017 2.25031 2.30841 1.00344 1.12635 2.30841 2.34188 1.12635 1.15852 2.34188 2.40121 1.15852 1.1807 2.40121 2.41687 1.1807 1.19247 2.41687 2.39536 1.19247 1.18794 2.39536 2.33485 1.18794 1.20739 2.33485 2.46702 1.20739 1.19854 2.46702 2.4079 1.19854 1.16257 2.4079 2.4011 1.16257 1.01682 0 0.00045463 0 -2.24216e-11 0.00045463 -0.0039386 -2.24216e-11 -3.33773e-11 -0.0039386 -0.0162667 -3.33773e-11 -3.21126e-11 -0.0162667 -0.0375295 -3.21126e-11 -2.43575e-11 -0.0375295 -0.0638168 -2.43575e-11 -1.19896e-11 -0.0638168 -0.105334 -1.19896e-11 5.01586e-12 -0.105334 -0.190711 5.01586e-12 2.06283e-11 -0.190711 -0.348265 2.06283e-11 2.17182e-11 -0.348265 -0.211454 2.17182e-11 1.04527e-11 -0.211454 -0.361406 1.04527e-11 -1.10163e-12 -0.361406 -0.423354 -1.10163e-12 -2.21029e-12 0.705269 0.845668 7.0814e-13 1.16472e-12 0.845668 0.946017 1.16472e-12 1.36687e-12 0.946017 0.991348 1.36687e-12 1.4181e-12 0.991348 0.972856 1.4181e-12 1.54765e-12 1.00344 1.12635 -4.90614e-10 -8.37482e-10 1.12635 1.15852 -8.37482e-10 -3.45195e-10 1.15852 1.1807 -3.45195e-10 -5.90162e-10 1.1807 1.19247 -5.90162e-10 -5.53855e-10 1.19247 1.18794 -5.53855e-10 -1.72376e-10 1.18794 1.20739 -1.72376e-10 -5.06175e-10 1.20739 1.19854 -5.06175e-10 -3.09276e-10 1.19854 1.16257 -3.09276e-10 1.47546e-10 1.16257 1.01682 1.47546e-10 1.82938e-10 1.01682 1.09634 1.82938e-10 5.91786e-10 1.88911 2.09944 2.44064e-12 2.09085e-12 0 -2.24216e-11 0 -0.00045463 -2.24216e-11 -3.33773e-11 -0.00045463 0.0039386 -3.33773e-11 -3.21126e-11 0.0039386 0.0162667 -3.21126e-11 -2.43575e-11 0.0162667 0.0375295 -2.43575e-11 -1.19896e-11 0.0375295 0.0638168 -1.19896e-11 5.01586e-12 0.0638168 0.105334 5.01586e-12 2.06283e-11 0.105334 0.190711 2.06283e-11 2.17182e-11 0.190711 0.348265 2.17182e-11 1.04527e-11 0.348265 0.211454 1.04527e-11 -1.10163e-12 0.211454 0.361406 -1.10163e-12 -2.21029e-12 0.361406 0.423354 7.0814e-13 1.16472e-12 -0.705269 -0.845668 1.16472e-12 1.36687e-12 -0.845668 -0.946017 1.36687e-12 1.4181e-12 -0.946017 -0.991348 1.4181e-12 1.54765e-12 -0.991348 -0.972856 -4.90614e-10 -8.37482e-10 -1.00344 -1.12635 -8.37482e-10 -3.45195e-10 -1.12635 -1.15852 -3.45195e-10 -5.90162e-10 -1.15852 -1.1807 -5.90162e-10 -5.53855e-10 -1.1807 -1.19247 -5.53855e-10 -1.72376e-10 -1.19247 -1.18794 -1.72376e-10 -5.06175e-10 -1.18794 -1.20739 -5.06175e-10 -3.09276e-10 -1.20739 -1.19854 -3.09276e-10 1.47546e-10 -1.19854 -1.16257 1.47546e-10 1.82938e-10 -1.16257 -1.01682 1.82938e-10 5.91786e-10 -1.01682 -1.09634 2.44064e-12 2.09085e-12 -1.88911 -2.09944 0 -0.00045463 0 0.00744509 -0.00045463 0.0039386 0.00744509 0.0144787 0.0039386 0.0162667 0.0144787 0.0438942 0.0162667 0.0375295 0.0438942 0.0705675 0.0375295 0.0638168 0.0705675 0.100211 0.0638168 0.105334 0.100211 0.136228 0.105334 0.190711 0.136228 0.216876 0.190711 0.348265 0.216876 0.437234 0.348265 0.211454 0.437234 1.61312 -0.524665 -0.705269 -1.24917 -1.49898 -0.705269 -0.845668 -1.49898 -1.73597 -0.845668 -0.946017 -1.73597 -1.94456 -1.00344 -1.12635 -2.25031 -2.30841 -1.12635 -1.15852 -2.30841 -2.34188 -1.15852 -1.1807 -2.34188 -2.40121 -1.1807 -1.19247 -2.40121 -2.41687 -1.19247 -1.18794 -2.41687 -2.39536 -1.18794 -1.20739 -2.39536 -2.33485 -1.20739 -1.19854 -2.33485 -2.46702 -1.19854 -1.16257 -2.46702 -2.4079 -1.16257 -1.01682 -2.4079 -2.4011 0 0.00744509 0 0.0240804 0.00744509 0.0144787 0.0240804 0.0843753 0.0144787 0.0438942 0.0843753 0.097436 0.0438942 0.0705675 0.097436 0.12561 0.0705675 0.100211 0.12561 0.0882829 0.100211 0.136228 0.0882829 0.0551716 0.136228 0.216876 0.0551716 0.0463702 -1.00341 -1.24917 -1.74811 -2.04098 -2.30841 -2.34188 -3.55036 -3.622 -2.34188 -2.40121 -3.622 -3.6783 -2.40121 -2.41687 -3.6783 -3.6939 -2.41687 -2.39536 -3.6939 -3.6657 -2.39536 -2.33485 -3.6657 -3.58574 -2.33485 -2.46702 -3.58574 -3.09003 0 0.0240804 0 0.223117 0.0240804 0.0843753 0.223117 0.181278 0.0843753 0.097436 0.181278 0.392922 0.097436 0.12561 0.392922 0.173074 0.12561 0.0882829 0.173074 0.0149835 -1.16855 -1.46242 -1.88849 -2.19631 -3.55036 -3.622 -4.96523 -4.92716 -3.622 -3.6783 -4.92716 -4.93608 -3.6783 -3.6939 -4.93608 -5.00061 -3.6939 -3.6657 -5.00061 -5.05624 0 0.223117 0 0.3332 0.223117 0.181278 0.3332 1.50847 0.181278 0.392922 1.50847 0.20783 -4.64133 -4.96697 -5.73559 -6.04894 -4.92716 -4.93608 -6.05573 -5.82209 -4.93608 -5.00061 -5.82209 -6.17146 -7.31082 -7.3884 -8.93033 -8.96547 -7.3884 -7.32025 -8.96547 -8.94004 -1.38167 -1.6908 -2.11458 -2.41669 -5.12369 -4.94488 -5.22572 -5.90402 -4.94488 -5.43327 -5.90402 -6.3231 -5.43327 -5.73559 -6.3231 -6.76399 -5.73559 -6.04894 -6.76399 -7.11052 -8.5933 -8.80653 -10.4945 -10.5838 -8.80653 -8.93033 -10.5838 -10.6533 -8.93033 -8.96547 -10.6533 -10.6725 -8.96547 -8.94004 -10.6725 -10.6627 -1.48401 -1.80416 -2.25903 -2.5856 -10.2523 -10.4945 -12.1324 -12.3011 -10.4945 -10.5838 -12.3011 -12.4229 -10.5838 -10.6533 -12.4229 -12.4746 -10.6533 -10.6725 -12.4746 -12.4895 -10.6725 -10.6627 -12.4895 -12.4899 -1.06118 -1.47886 -1.65135 -2.18002 -1.47886 -1.88461 -2.18002 -2.67215 -1.88461 -2.25903 -2.67215 -3.1215 -2.25903 -2.5856 -3.1215 -3.52287 -11.7809 -11.9203 -13.7593 -13.9817 -11.9203 -12.1324 -13.9817 -14.1256 -12.1324 -12.3011 -14.1256 -14.2481 -12.3011 -12.4229 -14.2481 -14.3331 -12.4229 -12.4746 -14.3331 -14.3795 -12.4746 -12.4895 -14.3795 -14.3941 -12.4895 -12.4899 -14.3941 -14.3985 0 -0.53204 0 -0.774558 -0.53204 -1.08994 -0.774558 -1.59416 -1.08994 -1.65135 -1.59416 -2.32125 -1.65135 -2.18002 -2.32125 -2.9695 -2.18002 -2.67215 -2.9695 -3.55289 -2.67215 -3.1215 -3.55289 -4.08548 -3.1215 -3.52287 -4.08548 -4.58599 -10.7585 -11.1099 -12.3814 -12.8304 -11.1099 -11.4268 -12.8304 -13.2225 -13.0943 -13.4677 -15.5489 -15.7088 -13.4677 -13.7593 -15.7088 -15.9142 -13.7593 -13.9817 -15.9142 -16.0764 -13.9817 -14.1256 -16.0764 -16.196 -14.1256 -14.2481 -16.196 -16.2755 -14.2481 -14.3331 -16.2755 -16.3262 -14.3331 -14.3795 -16.3262 -16.3511 -14.3795 -14.3941 -16.3511 -16.359 -14.3941 -14.3985 -16.359 -16.3614 0 -0.774558 0 -1.32276 -0.774558 -1.59416 -1.32276 -2.33009 -1.59416 -2.32125 -2.33009 -3.17529 -2.32125 -2.9695 -3.17529 -3.90506 -2.9695 -3.55289 -3.90506 -4.54829 -3.55289 -4.08548 -4.54829 -5.1346 -4.08548 -4.58599 -5.1346 -5.69183 -4.58599 -5.07447 -5.69183 -6.23632 -5.07447 -5.55652 -6.23632 -6.77512 -5.55652 -6.03864 -6.77512 -7.31065 -6.03864 -6.52158 -7.31065 -7.8463 -6.52158 -7.0049 -7.8463 -8.38286 -7.0049 -7.49153 -8.38286 -8.91581 -7.49153 -7.98007 -8.91581 -9.43667 -7.98007 -8.4705 -9.43667 -9.94394 -8.4705 -8.96634 -9.94394 -10.4432 -8.96634 -9.46401 -10.4432 -10.938 -9.46401 -9.96244 -10.938 -11.4302 -9.96244 -10.4605 -11.4302 -11.9247 -10.4605 -10.9564 -11.9247 -12.4266 -10.9564 -11.4437 -12.4266 -12.9456 -11.4437 -11.9182 -12.9456 -13.5014 -11.9182 -12.3814 -13.5014 -14.1022 -12.3814 -12.8304 -14.1022 -14.6916 -12.8304 -13.2225 -14.6916 -15.1538 -14.1015 -15.9648 -17.0247 -17.2123 -15.9648 -15.5489 -17.2123 -17.873 -15.5489 -15.7088 -17.873 -18.0295 -15.7088 -15.9142 -18.0295 -18.1588 -15.9142 -16.0764 -18.1588 -18.2687 -16.0764 -16.196 -18.2687 -18.3409 -16.196 -16.2755 -18.3409 -18.3741 -16.2755 -16.3262 -18.3741 -18.3763 -16.3262 -16.3511 -18.3763 -18.3626 -16.3511 -16.359 -18.3626 -18.3481 -16.359 -16.3614 -18.3481 -18.3433 15.8669 16.4243 15.0395 14.7457 5.55652 5.79758 4.94707 5.17448 5.79758 6.03864 5.17448 5.40272 4.94707 5.17448 4.33621 4.5517 5.17448 5.40272 4.5517 4.7671 6.03864 6.28011 5.40272 5.63108 6.28011 6.52158 5.63108 5.85937 5.40272 5.63108 4.7671 4.98234 5.63108 5.85937 4.98234 5.19745 6.52158 6.76324 5.85937 6.08761 6.76324 7.0049 6.08761 6.31608 5.85937 6.08761 5.19745 5.41244 6.08761 6.31608 5.41244 5.62722 7.0049 7.24821 6.31608 6.54562 7.24821 7.49153 6.54562 6.77849 6.31608 6.54562 5.62722 5.84175 6.54562 6.77849 5.84175 6.05733 7.49153 7.7358 6.77849 7.01355 7.7358 7.98007 7.01355 7.25051 7.98007 8.22528 7.25051 7.4897 8.22528 8.4705 7.4897 7.73347 8.4705 8.71842 7.73347 7.97959 8.71842 8.96634 7.97959 8.22743 8.96634 9.21517 8.22743 8.47603 9.21517 9.46401 8.47603 8.72618 9.46401 9.71322 8.72618 8.97721 9.71322 9.96244 8.97721 9.22853 9.96244 10.2114 9.22853 9.47915 10.2114 10.4605 9.47915 9.72828 10.4605 10.7084 9.72828 9.97649 10.7084 10.9564 9.97649 10.2213 10.9564 11.2001 10.2213 10.4613 11.2001 11.4437 10.4613 10.6943 11.4437 11.6809 10.6943 10.9214 11.6809 11.9182 10.9214 11.1357 10.9214 11.1357 10.1834 10.3889 14.1015 15.0332 13.417 13.1357 15.0332 15.9648 13.1357 13.7284 0 0.26602 0 0.205121 0.26602 0.53204 0.205121 0.420368 0.53204 0.810992 0.420368 0.642575 0.810992 1.08994 0.642575 0.876232 0.642575 0.876232 0.463182 0.657771 11.4268 11.5595 10.5001 10.6086 11.5595 11.6811 10.6086 10.7225 13.0943 13.281 12.0048 11.9498 13.281 13.4677 11.9498 12.5971 11.9498 12.5971 11.2338 11.058 0 -0.0880696 0 -0.163412 1.06118 1.27002 0.770758 0.956062 1.27002 1.47886 0.956062 1.14267 3.88925 4.06416 3.30159 3.40276 4.06416 4.2514 3.40276 3.58454 8.59175 8.73294 8.08369 7.92243 8.08369 7.92243 7.45037 7.85008 10.0133 10.1466 9.05806 9.20121 10.1466 10.2788 9.20121 9.33863 9.87557 10.0079 8.94972 9.08233 11.3981 11.7809 10.6868 10.3414 -0.12994 0.22945 -1.50847 -0.85815 0.22945 0.0461315 -0.85815 -0.20783 1.3212 1.48401 0.956501 1.11724 2.35374 2.50356 1.99633 2.14839 3.60685 3.87254 3.21369 3.21524 3.87254 4.21322 3.21524 3.64897 7.08249 7.00851 6.03036 6.05573 6.78406 7.17502 5.82209 5.99678 7.17502 7.11358 5.99678 6.17146 10.133 10.2523 9.15788 9.38131 -0.199778 0.0220883 -0.173074 -0.0940289 0.0220883 0.20185 -0.0940289 -0.0149835 1.2267 1.38167 0.866739 1.02131 2.24918 2.40325 1.88849 2.0424 2.40325 2.56328 2.0424 2.19631 3.73931 5.12369 3.56552 3.14164 5.12369 5.03428 3.14164 3.82966 5.03428 4.94488 3.82966 3.97038 6.04894 6.2151 5.50795 5.67933 5.50795 5.67933 4.96697 5.0019 5.68361 5.68016 4.98905 4.99031 5.80932 5.88359 5.05624 5.12128 7.24245 7.3776 6.3232 6.46125 8.5933 8.69992 7.67655 7.84857 8.69992 8.80653 7.84857 7.95886 0.0284883 0.0593752 -0.0551716 -0.0507709 0.0593752 0.0967621 -0.0507709 -0.0463702 1.12395 1.27796 0.763799 0.917577 2.13069 2.28495 1.74811 1.89454 2.28495 2.44374 1.89454 2.04098 2.44374 2.60731 2.04098 2.19331 4.35999 4.64133 3.5087 3.99686 5.0068 4.96523 4.11645 4.2578 4.11645 4.2578 3.63674 3.55036 4.62837 4.43712 3.09003 3.79155 5.95468 6.089 5.04579 5.18139 5.7222 5.85817 4.81817 4.95182 7.31082 7.34961 6.52119 6.60267 7.34961 7.3884 6.60267 6.65123 -0.260559 -0.217274 -0.437234 -1.02518 -0.217274 0.28358 -1.02518 -1.61312 0.28358 -0.120204 -1.61312 -0.204626 1.01821 1.16855 0.662135 0.813685 2.19339 2.32672 1.73597 1.84026 2.32672 2.4554 1.84026 1.94456 3.62863 3.62421 2.95107 2.94563 2.95107 2.94563 2.26249 2.2698 3.06633 3.1485 2.4079 2.4045 3.1485 3.17429 2.4045 2.4011 4.44419 4.58555 3.51541 3.64808 5.92254 5.97097 5.1543 5.10352 -0.0473277 -0.0853571 -0.423354 -0.379899 0.878571 1.00341 0.534339 0.656457 2.30123 2.25031 1.46383 1.62687 1.46383 1.62687 0.969689 1.00344 1.55188 1.78933 1.09634 1.11761 3.14058 3.26368 2.24743 2.36454 -0.0736711 -0.0678662 -1.57071e-11 -3.521e-12 0.972856 0.971122 0.486428 0.444588 0.486428 0.444588 1.54765e-12 1.59455e-12 0.541283 0.529176 1.43793e-10 -8.58508e-11 -1.57071e-11 -3.521e-12 0.0736711 0.0678662 1.54765e-12 1.59455e-12 -0.486428 -0.444588 -0.486428 -0.444588 -0.972856 -0.971122 1.43793e-10 -8.58508e-11 -0.541283 -0.529176 0.423354 0.379899 0.0473277 0.0853571 -0.534339 -0.656457 -0.878571 -1.00341 -0.969689 -1.00344 -1.46383 -1.62687 -1.46383 -1.62687 -2.30123 -2.25031 -1.09634 -1.11761 -1.55188 -1.78933 -2.24743 -2.36454 -3.14058 -3.26368 0.437234 1.02518 0.260559 0.217274 1.02518 1.61312 0.217274 -0.28358 1.61312 0.204626 -0.28358 0.120204 -0.662135 -0.813685 -1.01821 -1.16855 -1.73597 -1.84026 -2.19339 -2.32672 -1.84026 -1.94456 -2.32672 -2.4554 -2.26249 -2.2698 -2.95107 -2.94563 -2.95107 -2.94563 -3.62863 -3.62421 -2.4079 -2.4045 -3.06633 -3.1485 -2.4045 -2.4011 -3.1485 -3.17429 -3.51541 -3.64808 -4.44419 -4.58555 -5.1543 -5.10352 -5.92254 -5.97097 0.0551716 0.0507709 -0.0284883 -0.0593752 0.0507709 0.0463702 -0.0593752 -0.0967621 -0.763799 -0.917577 -1.12395 -1.27796 -1.74811 -1.89454 -2.13069 -2.28495 -1.89454 -2.04098 -2.28495 -2.44374 -2.04098 -2.19331 -2.44374 -2.60731 -3.5087 -3.99686 -4.35999 -4.64133 -3.63674 -3.55036 -4.11645 -4.2578 -4.11645 -4.2578 -5.0068 -4.96523 -3.09003 -3.79155 -4.62837 -4.43712 -5.04579 -5.18139 -5.95468 -6.089 -4.81817 -4.95182 -5.7222 -5.85817 -6.52119 -6.60267 -7.31082 -7.34961 -6.60267 -6.65123 -7.34961 -7.3884 0.173074 0.0940289 0.199778 -0.0220883 0.0940289 0.0149835 -0.0220883 -0.20185 -0.866739 -1.02131 -1.2267 -1.38167 -1.88849 -2.0424 -2.24918 -2.40325 -2.0424 -2.19631 -2.40325 -2.56328 -3.56552 -3.14164 -3.73931 -5.12369 -3.14164 -3.82966 -5.12369 -5.03428 -3.82966 -3.97038 -5.03428 -4.94488 -4.96697 -5.0019 -5.50795 -5.67933 -5.50795 -5.67933 -6.04894 -6.2151 -4.98905 -4.99031 -5.68361 -5.68016 -5.05624 -5.12128 -5.80932 -5.88359 -6.3232 -6.46125 -7.24245 -7.3776 -7.67655 -7.84857 -8.5933 -8.69992 -7.84857 -7.95886 -8.69992 -8.80653 1.50847 0.85815 0.12994 -0.22945 0.85815 0.20783 -0.22945 -0.0461315 -0.956501 -1.11724 -1.3212 -1.48401 -1.99633 -2.14839 -2.35374 -2.50356 -3.21369 -3.21524 -3.60685 -3.87254 -3.21524 -3.64897 -3.87254 -4.21322 -6.03036 -6.05573 -7.08249 -7.00851 -5.82209 -5.99678 -6.78406 -7.17502 -5.99678 -6.17146 -7.17502 -7.11358 -9.15788 -9.38131 -10.133 -10.2523 0 0.163412 0 0.0880696 -0.770758 -0.956062 -1.06118 -1.27002 -0.956062 -1.14267 -1.27002 -1.47886 -3.30159 -3.40276 -3.88925 -4.06416 -3.40276 -3.58454 -4.06416 -4.2514 -7.45037 -7.85008 -8.08369 -7.92243 -8.08369 -7.92243 -8.59175 -8.73294 -9.05806 -9.20121 -10.0133 -10.1466 -9.20121 -9.33863 -10.1466 -10.2788 -8.94972 -9.08233 -9.87557 -10.0079 -10.6868 -10.3414 -11.3981 -11.7809 0 -0.205121 0 -0.26602 -0.205121 -0.420368 -0.26602 -0.53204 -0.463182 -0.657771 -0.642575 -0.876232 -0.420368 -0.642575 -0.53204 -0.810992 -0.642575 -0.876232 -0.810992 -1.08994 -10.5001 -10.6086 -11.4268 -11.5595 -10.6086 -10.7225 -11.5595 -11.6811 -11.2338 -11.058 -11.9498 -12.5971 -12.0048 -11.9498 -13.0943 -13.281 -11.9498 -12.5971 -13.281 -13.4677 -4.33621 -4.5517 -4.94707 -5.17448 -4.5517 -4.7671 -5.17448 -5.40272 -4.94707 -5.17448 -5.55652 -5.79758 -5.17448 -5.40272 -5.79758 -6.03864 -4.7671 -4.98234 -5.40272 -5.63108 -4.98234 -5.19745 -5.63108 -5.85937 -5.40272 -5.63108 -6.03864 -6.28011 -5.63108 -5.85937 -6.28011 -6.52158 -5.19745 -5.41244 -5.85937 -6.08761 -5.41244 -5.62722 -6.08761 -6.31608 -5.85937 -6.08761 -6.52158 -6.76324 -6.08761 -6.31608 -6.76324 -7.0049 -5.62722 -5.84175 -6.31608 -6.54562 -5.84175 -6.05733 -6.54562 -6.77849 -6.31608 -6.54562 -7.0049 -7.24821 -6.54562 -6.77849 -7.24821 -7.49153 -6.77849 -7.01355 -7.49153 -7.7358 -7.01355 -7.25051 -7.7358 -7.98007 -7.25051 -7.4897 -7.98007 -8.22528 -7.4897 -7.73347 -8.22528 -8.4705 -7.73347 -7.97959 -8.4705 -8.71842 -7.97959 -8.22743 -8.71842 -8.96634 -8.22743 -8.47603 -8.96634 -9.21517 -8.47603 -8.72618 -9.21517 -9.46401 -8.72618 -8.97721 -9.46401 -9.71322 -8.97721 -9.22853 -9.71322 -9.96244 -9.22853 -9.47915 -9.96244 -10.2114 -9.47915 -9.72828 -10.2114 -10.4605 -9.72828 -9.97649 -10.4605 -10.7084 -9.97649 -10.2213 -10.7084 -10.9564 -10.2213 -10.4613 -10.9564 -11.2001 -10.4613 -10.6943 -11.2001 -11.4437 -10.1834 -10.3889 -10.9214 -11.1357 -10.6943 -10.9214 -11.4437 -11.6809 -10.9214 -11.1357 -11.6809 -11.9182 -13.417 -13.1357 -14.1015 -15.0332 -13.1357 -13.7284 -15.0332 -15.9648 -15.0395 -14.7457 -15.8669 -16.4243 15.1538 15.3133 14.1881 14.3318 14.1881 14.3318 13.2225 13.3995 16.4243 16.6139 14.7457 15.2232 16.6139 17.0247 15.2232 15.5631 15.2232 15.5631 14.1018 14.1015 5.07447 5.31549 4.49738 4.72173 5.31549 5.55652 4.72173 4.94707 4.49738 4.72173 3.91697 4.12288 4.72173 4.94707 4.12288 4.33621 11.9182 12.1498 11.1357 11.3481 12.1498 12.3814 11.3481 11.5699 11.1357 11.3481 10.3889 10.5793 11.3481 11.5699 10.5793 10.7585 13.5465 13.6782 12.6184