# vtk DataFile Version 3.0
#This file was generated by the deal.II library on 2016/3/9 at 8:36:03
ASCII
DATASET UNSTRUCTURED_GRID

POINTS 2048 double
0 0 0
0.0625 0 0
0 0.0625 0
0.0625 0.0625 0
0.0625 0 0
0.125 0 0
0.0625 0.0625 0
0.125 0.0625 0
0 0.0625 0
0.0625 0.0625 0
0 0.125 0
0.0625 0.125 0
0.0625 0.0625 0
0.125 0.0625 0
0.0625 0.125 0
0.125 0.125 0
0.125 0 0
0.1875 0 0
0.125 0.0625 0
0.1875 0.0625 0
0.1875 0 0
0.25 0 0
0.1875 0.0625 0
0.25 0.0625 0
0.125 0.0625 0
0.1875 0.0625 0
0.125 0.125 0
0.1875 0.125 0
0.1875 0.0625 0
0.25 0.0625 0
0.1875 0.125 0
0.25 0.125 0
0 0.125 0
0.0625 0.125 0
0 0.1875 0
0.0625 0.1875 0
0.0625 0.125 0
0.125 0.125 0
0.0625 0.1875 0
0.125 0.1875 0
0 0.1875 0
0.0625 0.1875 0
0 0.25 0
0.0625 0.25 0
0.0625 0.1875 0
0.125 0.1875 0
0.0625 0.25 0
0.125 0.25 0
0.125 0.125 0
0.1875 0.125 0
0.125 0.1875 0
0.1875 0.1875 0
0.1875 0.125 0
0.25 0.125 0
0.1875 0.1875 0
0.25 0.1875 0
0.125 0.1875 0
0.1875 0.1875 0
0.125 0.25 0
0.1875 0.25 0
0.1875 0.1875 0
0.25 0.1875 0
0.1875 0.25 0
0.25 0.25 0
0.25 0 0
0.3125 0 0
0.25 0.0625 0
0.3125 0.0625 0
0.3125 0 0
0.375 0 0
0.3125 0.0625 0
0.375 0.0625 0
0.25 0.0625 0
0.3125 0.0625 0
0.25 0.125 0
0.3125 0.125 0
0.3125 0.0625 0
0.375 0.0625 0
0.3125 0.125 0
0.375 0.125 0
0.375 0 0
0.4375 0 0
0.375 0.0625 0
0.4375 0.0625 0
0.4375 0 0
0.5 0 0
0.4375 0.0625 0
0.5 0.0625 0
0.375 0.0625 0
0.4375 0.0625 0
0.375 0.125 0
0.4375 0.125 0
0.4375 0.0625 0
0.5 0.0625 0
0.4375 0.125 0
0.5 0.125 0
0.25 0.125 0
0.3125 0.125 0
0.25 0.1875 0
0.3125 0.1875 0
0.3125 0.125 0
0.375 0.125 0
0.3125 0.1875 0
0.375 0.1875 0
0.25 0.1875 0
0.3125 0.1875 0
0.25 0.25 0
0.3125 0.25 0
0.3125 0.1875 0
0.375 0.1875 0
0.3125 0.25 0
0.375 0.25 0
0.375 0.125 0
0.4375 0.125 0
0.375 0.1875 0
0.4375 0.1875 0
0.4375 0.125 0
0.5 0.125 0
0.4375 0.1875 0
0.5 0.1875 0
0.375 0.1875 0
0.4375 0.1875 0
0.375 0.25 0
0.4375 0.25 0
0.4375 0.1875 0
0.5 0.1875 0
0.4375 0.25 0
0.5 0.25 0
0 0.25 0
0.0625 0.25 0
0 0.3125 0
0.0625 0.3125 0
0.0625 0.25 0
0.125 0.25 0
0.0625 0.3125 0
0.125 0.3125 0
0 0.3125 0
0.0625 0.3125 0
0 0.375 0
0.0625 0.375 0
0.0625 0.3125 0
0.125 0.3125 0
0.0625 0.375 0
0.125 0.375 0
0.125 0.25 0
0.1875 0.25 0
0.125 0.3125 0
0.1875 0.3125 0
0.1875 0.25 0
0.25 0.25 0
0.1875 0.3125 0
0.25 0.3125 0
0.125 0.3125 0
0.1875 0.3125 0
0.125 0.375 0
0.1875 0.375 0
0.1875 0.3125 0
0.25 0.3125 0
0.1875 0.375 0
0.25 0.375 0
0 0.375 0
0.0625 0.375 0
0 0.4375 0
0.0625 0.4375 0
0.0625 0.375 0
0.125 0.375 0
0.0625 0.4375 0
0.125 0.4375 0
0 0.4375 0
0.0625 0.4375 0
0 0.5 0
0.0625 0.5 0
0.0625 0.4375 0
0.125 0.4375 0
0.0625 0.5 0
0.125 0.5 0
0.125 0.375 0
0.1875 0.375 0
0.125 0.4375 0
0.1875 0.4375 0
0.1875 0.375 0
0.25 0.375 0
0.1875 0.4375 0
0.25 0.4375 0
0.125 0.4375 0
0.1875 0.4375 0
0.125 0.5 0
0.1875 0.5 0
0.1875 0.4375 0
0.25 0.4375 0
0.1875 0.5 0
0.25 0.5 0
0.25 0.25 0
0.3125 0.25 0
0.25 0.3125 0
0.3125 0.3125 0
0.3125 0.25 0
0.375 0.25 0
0.3125 0.3125 0
0.375 0.3125 0
0.25 0.3125 0
0.3125 0.3125 0
0.25 0.375 0
0.3125 0.375 0
0.3125 0.3125 0
0.375 0.3125 0
0.3125 0.375 0
0.375 0.375 0
0.375 0.25 0
0.4375 0.25 0
0.375 0.3125 0
0.4375 0.3125 0
0.4375 0.25 0
0.5 0.25 0
0.4375 0.3125 0
0.5 0.3125 0
0.375 0.3125 0
0.4375 0.3125 0
0.375 0.375 0
0.4375 0.375 0
0.4375 0.3125 0
0.5 0.3125 0
0.4375 0.375 0
0.5 0.375 0
0.25 0.375 0
0.3125 0.375 0
0.25 0.4375 0
0.3125 0.4375 0
0.3125 0.375 0
0.375 0.375 0
0.3125 0.4375 0
0.375 0.4375 0
0.25 0.4375 0
0.3125 0.4375 0
0.25 0.5 0
0.3125 0.5 0
0.3125 0.4375 0
0.375 0.4375 0
0.3125 0.5 0
0.375 0.5 0
0.375 0.375 0
0.4375 0.375 0
0.375 0.4375 0
0.4375 0.4375 0
0.4375 0.375 0
0.5 0.375 0
0.4375 0.4375 0
0.5 0.4375 0
0.375 0.4375 0
0.4375 0.4375 0
0.375 0.5 0
0.4375 0.5 0
0.4375 0.4375 0
0.5 0.4375 0
0.4375 0.5 0
0.5 0.5 0
0.5 0 0
0.5625 0 0
0.5 0.0625 0
0.5625 0.0625 0
0.5625 0 0
0.625 0 0
0.5625 0.0625 0
0.625 0.0625 0
0.5 0.0625 0
0.5625 0.0625 0
0.5 0.125 0
0.5625 0.125 0
0.5625 0.0625 0
0.625 0.0625 0
0.5625 0.125 0
0.625 0.125 0
0.625 0 0
0.6875 0 0
0.625 0.0625 0
0.6875 0.0625 0
0.6875 0 0
0.75 0 0
0.6875 0.0625 0
0.75 0.0625 0
0.625 0.0625 0
0.6875 0.0625 0
0.625 0.125 0
0.6875 0.125 0
0.6875 0.0625 0
0.75 0.0625 0
0.6875 0.125 0
0.75 0.125 0
0.5 0.125 0
0.5625 0.125 0
0.5 0.1875 0
0.5625 0.1875 0
0.5625 0.125 0
0.625 0.125 0
0.5625 0.1875 0
0.625 0.1875 0
0.5 0.1875 0
0.5625 0.1875 0
0.5 0.25 0
0.5625 0.25 0
0.5625 0.1875 0
0.625 0.1875 0
0.5625 0.25 0
0.625 0.25 0
0.625 0.125 0
0.6875 0.125 0
0.625 0.1875 0
0.6875 0.1875 0
0.6875 0.125 0
0.75 0.125 0
0.6875 0.1875 0
0.75 0.1875 0
0.625 0.1875 0
0.6875 0.1875 0
0.625 0.25 0
0.6875 0.25 0
0.6875 0.1875 0
0.75 0.1875 0
0.6875 0.25 0
0.75 0.25 0
0.75 0 0
0.8125 0 0
0.75 0.0625 0
0.8125 0.0625 0
0.8125 0 0
0.875 0 0
0.8125 0.0625 0
0.875 0.0625 0
0.75 0.0625 0
0.8125 0.0625 0
0.75 0.125 0
0.8125 0.125 0
0.8125 0.0625 0
0.875 0.0625 0
0.8125 0.125 0
0.875 0.125 0
0.875 0 0
0.9375 0 0
0.875 0.0625 0
0.9375 0.0625 0
0.9375 0 0
1 0 0
0.9375 0.0625 0
1 0.0625 0
0.875 0.0625 0
0.9375 0.0625 0
0.875 0.125 0
0.9375 0.125 0
0.9375 0.0625 0
1 0.0625 0
0.9375 0.125 0
1 0.125 0
0.75 0.125 0
0.8125 0.125 0
0.75 0.1875 0
0.8125 0.1875 0
0.8125 0.125 0
0.875 0.125 0
0.8125 0.1875 0
0.875 0.1875 0
0.75 0.1875 0
0.8125 0.1875 0
0.75 0.25 0
0.8125 0.25 0
0.8125 0.1875 0
0.875 0.1875 0
0.8125 0.25 0
0.875 0.25 0
0.875 0.125 0
0.9375 0.125 0
0.875 0.1875 0
0.9375 0.1875 0
0.9375 0.125 0
1 0.125 0
0.9375 0.1875 0
1 0.1875 0
0.875 0.1875 0
0.9375 0.1875 0
0.875 0.25 0
0.9375 0.25 0
0.9375 0.1875 0
1 0.1875 0
0.9375 0.25 0
1 0.25 0
0.5 0.25 0
0.5625 0.25 0
0.5 0.3125 0
0.5625 0.3125 0
0.5625 0.25 0
0.625 0.25 0
0.5625 0.3125 0
0.625 0.3125 0
0.5 0.3125 0
0.5625 0.3125 0
0.5 0.375 0
0.5625 0.375 0
0.5625 0.3125 0
0.625 0.3125 0
0.5625 0.375 0
0.625 0.375 0
0.625 0.25 0
0.6875 0.25 0
0.625 0.3125 0
0.6875 0.3125 0
0.6875 0.25 0
0.75 0.25 0
0.6875 0.3125 0
0.75 0.3125 0
0.625 0.3125 0
0.6875 0.3125 0
0.625 0.375 0
0.6875 0.375 0
0.6875 0.3125 0
0.75 0.3125 0
0.6875 0.375 0
0.75 0.375 0
0.5 0.375 0
0.5625 0.375 0
0.5 0.4375 0
0.5625 0.4375 0
0.5625 0.375 0
0.625 0.375 0
0.5625 0.4375 0
0.625 0.4375 0
0.5 0.4375 0
0.5625 0.4375 0
0.5 0.5 0
0.5625 0.5 0
0.5625 0.4375 0
0.625 0.4375 0
0.5625 0.5 0
0.625 0.5 0
0.625 0.375 0
0.6875 0.375 0
0.625 0.4375 0
0.6875 0.4375 0
0.6875 0.375 0
0.75 0.375 0
0.6875 0.4375 0
0.75 0.4375 0
0.625 0.4375 0
0.6875 0.4375 0
0.625 0.5 0
0.6875 0.5 0
0.6875 0.4375 0
0.75 0.4375 0
0.6875 0.5 0
0.75 0.5 0
0.75 0.25 0
0.8125 0.25 0
0.75 0.3125 0
0.8125 0.3125 0
0.8125 0.25 0
0.875 0.25 0
0.8125 0.3125 0
0.875 0.3125 0
0.75 0.3125 0
0.8125 0.3125 0
0.75 0.375 0
0.8125 0.375 0
0.8125 0.3125 0
0.875 0.3125 0
0.8125 0.375 0
0.875 0.375 0
0.875 0.25 0
0.9375 0.25 0
0.875 0.3125 0
0.9375 0.3125 0
0.9375 0.25 0
1 0.25 0
0.9375 0.3125 0
1 0.3125 0
0.875 0.3125 0
0.9375 0.3125 0
0.875 0.375 0
0.9375 0.375 0
0.9375 0.3125 0
1 0.3125 0
0.9375 0.375 0
1 0.375 0
0.75 0.375 0
0.8125 0.375 0
0.75 0.4375 0
0.8125 0.4375 0
0.8125 0.375 0
0.875 0.375 0
0.8125 0.4375 0
0.875 0.4375 0
0.75 0.4375 0
0.8125 0.4375 0
0.75 0.5 0
0.8125 0.5 0
0.8125 0.4375 0
0.875 0.4375 0
0.8125 0.5 0
0.875 0.5 0
0.875 0.375 0
0.9375 0.375 0
0.875 0.4375 0
0.9375 0.4375 0
0.9375 0.375 0
1 0.375 0
0.9375 0.4375 0
1 0.4375 0
0.875 0.4375 0
0.9375 0.4375 0
0.875 0.5 0
0.9375 0.5 0
0.9375 0.4375 0
1 0.4375 0
0.9375 0.5 0
1 0.5 0
1 0 0
1.0625 0 0
1 0.0625 0
1.0625 0.0625 0
1.0625 0 0
1.125 0 0
1.0625 0.0625 0
1.125 0.0625 0
1 0.0625 0
1.0625 0.0625 0
1 0.125 0
1.0625 0.125 0
1.0625 0.0625 0
1.125 0.0625 0
1.0625 0.125 0
1.125 0.125 0
1.125 0 0
1.1875 0 0
1.125 0.0625 0
1.1875 0.0625 0
1.1875 0 0
1.25 0 0
1.1875 0.0625 0
1.25 0.0625 0
1.125 0.0625 0
1.1875 0.0625 0
1.125 0.125 0
1.1875 0.125 0
1.1875 0.0625 0
1.25 0.0625 0
1.1875 0.125 0
1.25 0.125 0
1 0.125 0
1.0625 0.125 0
1 0.1875 0
1.0625 0.1875 0
1.0625 0.125 0
1.125 0.125 0
1.0625 0.1875 0
1.125 0.1875 0
1 0.1875 0
1.0625 0.1875 0
1 0.25 0
1.0625 0.25 0
1.0625 0.1875 0
1.125 0.1875 0
1.0625 0.25 0
1.125 0.25 0
1.125 0.125 0
1.1875 0.125 0
1.125 0.1875 0
1.1875 0.1875 0
1.1875 0.125 0
1.25 0.125 0
1.1875 0.1875 0
1.25 0.1875 0
1.125 0.1875 0
1.1875 0.1875 0
1.125 0.25 0
1.1875 0.25 0
1.1875 0.1875 0
1.25 0.1875 0
1.1875 0.25 0
1.25 0.25 0
1.25 0 0
1.3125 0 0
1.25 0.0625 0
1.3125 0.0625 0
1.3125 0 0
1.375 0 0
1.3125 0.0625 0
1.375 0.0625 0
1.25 0.0625 0
1.3125 0.0625 0
1.25 0.125 0
1.3125 0.125 0
1.3125 0.0625 0
1.375 0.0625 0
1.3125 0.125 0
1.375 0.125 0
1.375 0 0
1.4375 0 0
1.375 0.0625 0
1.4375 0.0625 0
1.4375 0 0
1.5 0 0
1.4375 0.0625 0
1.5 0.0625 0
1.375 0.0625 0
1.4375 0.0625 0
1.375 0.125 0
1.4375 0.125 0
1.4375 0.0625 0
1.5 0.0625 0
1.4375 0.125 0
1.5 0.125 0
1.25 0.125 0
1.3125 0.125 0
1.25 0.1875 0
1.3125 0.1875 0
1.3125 0.125 0
1.375 0.125 0
1.3125 0.1875 0
1.375 0.1875 0
1.25 0.1875 0
1.3125 0.1875 0
1.25 0.25 0
1.3125 0.25 0
1.3125 0.1875 0
1.375 0.1875 0
1.3125 0.25 0
1.375 0.25 0
1.375 0.125 0
1.4375 0.125 0
1.375 0.1875 0
1.4375 0.1875 0
1.4375 0.125 0
1.5 0.125 0
1.4375 0.1875 0
1.5 0.1875 0
1.375 0.1875 0
1.4375 0.1875 0
1.375 0.25 0
1.4375 0.25 0
1.4375 0.1875 0
1.5 0.1875 0
1.4375 0.25 0
1.5 0.25 0
1 0.25 0
1.0625 0.25 0
1 0.3125 0
1.0625 0.3125 0
1.0625 0.25 0
1.125 0.25 0
1.0625 0.3125 0
1.125 0.3125 0
1 0.3125 0
1.0625 0.3125 0
1 0.375 0
1.0625 0.375 0
1.0625 0.3125 0
1.125 0.3125 0
1.0625 0.375 0
1.125 0.375 0
1.125 0.25 0
1.1875 0.25 0
1.125 0.3125 0
1.1875 0.3125 0
1.1875 0.25 0
1.25 0.25 0
1.1875 0.3125 0
1.25 0.3125 0
1.125 0.3125 0
1.1875 0.3125 0
1.125 0.375 0
1.1875 0.375 0
1.1875 0.3125 0
1.25 0.3125 0
1.1875 0.375 0
1.25 0.375 0
1 0.375 0
1.0625 0.375 0
1 0.4375 0
1.0625 0.4375 0
1.0625 0.375 0
1.125 0.375 0
1.0625 0.4375 0
1.125 0.4375 0
1 0.4375 0
1.0625 0.4375 0
1 0.5 0
1.0625 0.5 0
1.0625 0.4375 0
1.125 0.4375 0
1.0625 0.5 0
1.125 0.5 0
1.125 0.375 0
1.1875 0.375 0
1.125 0.4375 0
1.1875 0.4375 0
1.1875 0.375 0
1.25 0.375 0
1.1875 0.4375 0
1.25 0.4375 0
1.125 0.4375 0
1.1875 0.4375 0
1.125 0.5 0
1.1875 0.5 0
1.1875 0.4375 0
1.25 0.4375 0
1.1875 0.5 0
1.25 0.5 0
[...]
POINT_DATA 2048
SCALARS x_displacement double 1
LOOKUP_TABLE default
0 2.38165 0 1.00447 2.38165 4.26157 1.00447 2.15645 0 1.00447 0 0.0853614 1.00447 2.15645 0.0853614 0.418371 4.26157 5.73869 2.15645 3.22016 5.73869 6.85556 3.22016 4.19691 2.15645 3.22016 0.418371 1.05407 3.22016 4.19691 1.05407 1.87858 0 0.0853614 0 -0.838845 0.0853614 0.418371 -0.838845 -1.23896 0 -0.838845 0 -1.81431 -0.838845 -1.23896 -1.81431 -2.85708 0.418371 1.05407 -1.23896 -1.01864 1.05407 1.87858 -1.01864 -0.283747 -1.23896 -1.01864 -2.85708 -3.038 -1.01864 -0.283747 -3.038 -2.22235 6.85556 7.7027 4.19691 5.05413 7.7027 8.41552 5.05413 5.77363 4.19691 5.05413 1.87858 2.68774 5.05413 5.77363 2.68774 3.34519 8.41552 9.11248 5.77363 6.43121 9.11248 9.90829 6.43121 7.15388 5.77363 6.43121 3.34519 3.88721 6.43121 7.15388 3.88721 4.41962 1.87858 2.68774 -0.283747 0.589586 2.68774 3.34519 0.589586 1.26166 -0.283747 0.589586 -2.22235 -1.12825 0.589586 1.26166 -1.12825 -0.331568 3.34519 3.88721 1.26166 1.74606 3.88721 4.41962 1.74606 2.12543 1.26166 1.74606 -0.331568 0.224896 1.74606 2.12543 0.224896 0.659913 0 -1.81431 0 -2.87068 -1.81431 -2.85708 -2.87068 -4.30989 0 -2.87068 0 -1.87403 -2.87068 -4.30989 -1.87403 -3.62511 -2.85708 -3.038 -4.30989 -4.93045 -3.038 -2.22235 -4.93045 -3.76952 -4.30989 -4.93045 -3.62511 -3.54211 -4.93045 -3.76952 -3.54211 -3.16242 0 -1.87403 0 -0.620724 -1.87403 -3.62511 -0.620724 -1.31909 0 -0.620724 0 9.61964e-12 -0.620724 -1.31909 9.61964e-12 -3.26511e-11 -3.62511 -3.54211 -1.31909 -2.26679 -3.54211 -3.16242 -2.26679 -3.79526 -1.31909 -2.26679 -3.26511e-11 2.95669e-10 -2.26679 -3.79526 2.95669e-10 2.37493e-10 -2.22235 -1.12825 -3.76952 -2.27915 -1.12825 -0.331568 -2.27915 -1.3017 -3.76952 -2.27915 -3.16242 -2.59998 -2.27915 -1.3017 -2.59998 -1.75448 -0.331568 0.224896 -1.3017 -0.63168 0.224896 0.659913 -0.63168 -0.0761309 -1.3017 -0.63168 -1.75448 -1.08979 -0.63168 -0.0761309 -1.08979 -0.507628 -3.16242 -2.59998 -3.79526 -2.42053 -2.59998 -1.75448 -2.42053 -1.6859 -3.79526 -2.42053 2.37493e-10 -1.22628e-11 -2.42053 -1.6859 -1.22628e-11 -1.00552e-10 -1.75448 -1.08979 -1.6859 -1.22899 -1.08979 -0.507628 -1.22899 -0.640824 -1.6859 -1.22899 -1.00552e-10 -7.32806e-11 -1.22899 -0.640824 -7.32806e-11 -5.7837e-11 9.90829 10.8337 7.15388 8.01002 10.8337 11.822 8.01002 8.99821 7.15388 8.01002 4.41962 5.12135 8.01002 8.99821 5.12135 6.05408 11.822 12.8241 8.99821 9.98192 12.8241 13.8401 9.98192 10.9582 8.99821 9.98192 6.05408 7.10746 9.98192 10.9582 7.10746 8.10248 4.41962 5.12135 2.12543 2.54269 5.12135 6.05408 2.54269 3.17312 2.12543 2.54269 0.659913 1.06851 2.54269 3.17312 1.06851 1.53225 6.05408 7.10746 3.17312 4.20575 7.10746 8.10248 4.20575 5.44551 3.17312 4.20575 1.53225 2.28635 4.20575 5.44551 2.28635 3.85702 13.8401 14.9041 10.9582 11.9204 14.9041 16.0182 11.9204 12.82 10.9582 11.9204 8.10248 9.02078 11.9204 12.82 9.02078 9.74791 16.0182 17.0784 12.82 13.6112 17.0784 18.0022 13.6112 14.2978 12.82 13.6112 9.74791 10.3261 13.6112 14.2978 10.3261 10.865 8.10248 9.02078 5.44551 6.43039 9.02078 9.74791 6.43039 6.95149 5.44551 6.43039 3.85702 4.55393 6.43039 6.95149 4.55393 4.75797 9.74791 10.3261 6.95149 7.2752 10.3261 10.865 7.2752 7.57566 6.95149 7.2752 4.75797 4.81727 7.2752 7.57566 4.81727 4.74976 0.659913 1.06851 -0.0761309 0.447023 1.06851 1.53225 0.447023 1.05382 -0.0761309 0.447023 -0.507628 0.0640421 0.447023 1.05382 0.0640421 0.668442 1.53225 2.28635 1.05382 1.92058 2.28635 3.85702 1.92058 2.85321 1.05382 1.92058 0.668442 1.26741 1.92058 2.85321 1.26741 1.68159 -0.507628 0.0640421 -0.640824 -0.128122 0.0640421 0.668442 -0.128122 0.300118 -0.640824 -0.128122 -5.7837e-11 -5.05777e-11 -0.128122 0.300118 -5.05777e-11 -4.7828e-11 0.668442 1.26741 0.300118 0.595215 1.26741 1.68159 0.595215 0.742339 0.300118 0.595215 -4.7828e-11 -4.78083e-11 0.595215 0.742339 -4.78083e-11 -5.05793e-11 3.85702 4.55393 2.85321 3.14666 4.55393 4.75797 3.14666 3.1389 2.85321 3.14666 1.68159 1.78852 3.14666 3.1389 1.78852 1.71095 4.75797 4.81727 3.1389 3.0458 4.81727 4.74976 3.0458 2.83471 3.1389 3.0458 1.71095 1.60163 3.0458 2.83471 1.60163 1.46867 1.68159 1.78852 0.742339 0.752646 1.78852 1.71095 0.752646 0.663612 0.742339 0.752646 -5.05793e-11 -5.6842e-11 0.752646 0.663612 -5.6842e-11 -6.44592e-11 1.71095 1.60163 0.663612 0.520144 1.60163 1.46867 0.520144 0.294493 0.663612 0.520144 -6.44592e-11 -7.39327e-11 0.520144 0.294493 -7.39327e-11 -8.97698e-11 18.0022 18.7706 14.2978 14.9434 18.7706 19.3966 14.9434 15.5924 14.2978 14.9434 10.865 11.4737 14.9434 15.5924 11.4737 12.1812 19.3966 19.9542 15.5924 16.2546 19.9542 20.4931 16.2546 16.9476 15.5924 16.2546 12.1812 12.9232 16.2546 16.9476 12.9232 13.7092 10.865 11.4737 7.57566 8.03338 11.4737 12.1812 8.03338 8.78147 7.57566 8.03338 4.74976 4.68386 8.03338 8.78147 4.68386 5.29375 12.1812 12.9232 8.78147 9.63827 12.9232 13.7092 9.63827 10.5051 8.78147 9.63827 5.29375 6.26121 9.63827 10.5051 6.26121 7.21692 20.4931 21.0765 16.9476 17.6739 21.0765 21.6001 17.6739 18.419 16.9476 17.6739 13.7092 14.5386 17.6739 18.419 14.5386 15.4304 21.6001 21.9575 18.419 19.2994 21.9575 22.3124 19.2994 20.3788 18.419 19.2994 15.4304 16.3781 19.2994 20.3788 16.3781 17.4457 13.7092 14.5386 10.5051 11.379 14.5386 15.4304 11.379 12.3162 10.5051 11.379 7.21692 8.19685 11.379 12.3162 8.19685 9.19298 15.4304 16.3781 12.3162 13.3114 16.3781 17.4457 13.3114 14.3421 12.3162 13.3114 9.19298 10.1432 13.3114 14.3421 10.1432 11.0913 4.74976 4.68386 2.83471 2.08092 4.68386 5.29375 2.08092 1.75275 2.83471 2.08092 1.46867 1.19035 2.08092 1.75275 1.19035 -1.3446 5.29375 6.26121 1.75275 2.92903 6.26121 7.21692 2.92903 3.97035 1.75275 2.92903 -1.3446 -0.192594 2.92903 3.97035 -0.192594 0.770695 1.46867 1.19035 0.294493 -0.539644 1.19035 -1.3446 -0.539644 0.916968 0.294493 -0.539644 -8.97698e-11 -2.23021e-10 -0.539644 0.916968 -2.23021e-10 1.22071e-08 -1.3446 -0.192594 0.916968 -0.91971 -0.192594 0.770695 -0.91971 -1.41378 0.916968 -0.91971 1.22071e-08 6.25678e-09 -0.91971 -1.41378 6.25678e-09 3.2119e-09 7.21692 8.19685 3.97035 5.02819 8.19685 9.19298 5.02819 5.98787 3.97035 5.02819 0.770695 1.88035 5.02819 5.98787 1.88035 2.7947 9.19298 10.1432 5.98787 6.91791 10.1432 11.0913 6.91791 7.81661 5.98787 6.91791 2.7947 3.65062 6.91791 7.81661 3.65062 4.42407 0.770695 1.88035 -1.41378 -0.936118 1.88035 2.7947 -0.936118 -0.4129 -1.41378 -0.936118 3.2119e-09 -6.71486e-11 -0.936118 -0.4129 -6.71486e-11 -8.8306e-11 2.7947 3.65062 -0.4129 0.40765 3.65062 4.42407 0.40765 1.16694 -0.4129 0.40765 -8.8306e-11 -9.91426e-12 0.40765 1.16694 -9.91426e-12 -9.5598e-12 22.3124 22.1187 20.3788 21.2648 22.1187 25.1106 21.2648 22.174 20.3788 21.2648 17.4457 18.5744 21.2648 22.174 18.5744 19.8773 25.1106 27.2426 22.174 22.2329 27.2426 28.5593 22.2329 23.8242 22.174 22.2329 19.8773 20.9207 22.2329 23.8242 20.9207 21.7569 17.4457 18.5744 14.3421 15.4016 18.5744 19.8773 15.4016 16.5121 14.3421 15.4016 11.0913 12.087 15.4016 16.5121 12.087 13.0445 19.8773 20.9207 16.5121 17.5268 20.9207 21.7569 17.5268 18.546 16.5121 17.5268 13.0445 13.9728 17.5268 18.546 13.9728 14.9012 28.5593 29.41 23.8242 25.2834 29.41 30.1464 25.2834 26.1756 23.8242 25.2834 21.7569 22.1836 25.2834 26.1756 22.1836 22.7835 30.1464 30.4319 26.1756 26.5031 30.4319 30.4547 26.5031 26.5056 26.1756 26.5031 22.7835 23.2615 26.5031 26.5056 23.2615 23.1816 21.7569 22.1836 18.546 19.4462 22.1836 22.7835 19.4462 20.0242 18.546 19.4462 14.9012 15.9368 19.4462 20.0242 15.9368 17.337 22.7835 23.2615 20.0242 21.1515 23.2615 23.1816 21.1515 21.9141 20.0242 21.1515 17.337 19.0272 21.1515 21.9141 19.0272 19.7452 11.0913 12.087 7.81661 8.67256 12.087 13.0445 8.67256 9.48286 7.81661 8.67256 4.42407 5.17935 8.67256 9.48286 5.17935 5.92684 13.0445 13.9728 9.48286 10.3227 13.9728 14.9012 10.3227 11.2281 9.48286 10.3227 5.92684 6.72833 10.3227 11.2281 6.72833 7.5764 4.42407 5.17935 1.16694 1.83335 5.17935 5.92684 1.83335 2.53282 1.16694 1.83335 -9.5598e-12 -1.87127e-11 1.83335 2.53282 -1.87127e-11 -1.66882e-11 5.92684 6.72833 2.53282 3.246 6.72833 7.5764 3.246 3.88325 2.53282 3.246 -1.66882e-11 -1.57107e-11 3.246 3.88325 -1.57107e-11 -1.27913e-11 14.9012 15.9368 11.2281 12.3002 15.9368 17.337 12.3002 13.5823 11.2281 12.3002 7.5764 8.49625 12.3002 13.5823 8.49625 9.45557 17.337 19.0272 13.5823 14.7522 19.0272 19.7452 14.7522 15.1649 13.5823 14.7522 9.45557 10.1823 14.7522 15.1649 10.1823 10.4041 7.5764 8.49625 3.88325 4.42122 8.49625 9.45557 4.42122 4.89026 3.88325 4.42122 -1.27913e-11 -1.10464e-11 4.42122 4.89026 -1.10464e-11 -9.7075e-12 9.45557 10.1823 4.89026 5.36109 10.1823 10.4041 5.36109 5.44923 4.89026 5.36109 -9.7075e-12 -9.12457e-12 5.36109 5.44923 -9.12457e-12 -8.30566e-12 0 9.61964e-12 0 0.620724 9.61964e-12 -3.26511e-11 0.620724 1.31909 0 0.620724 0 1.87403 0.620724 1.31909 1.87403 3.62511 -3.26511e-11 2.95669e-10 1.31909 2.26679 2.95669e-10 2.37493e-10 2.26679 3.79526 1.31909 2.26679 3.62511 3.54211 2.26679 3.79526 3.54211 3.16242 0 1.87403 0 2.87068 1.87403 3.62511 2.87068 4.30989 0 2.87068 0 1.81431 2.87068 4.30989 1.81431 2.85708 3.62511 3.54211 4.30989 4.93045 3.54211 3.16242 4.93045 3.76952 4.30989 4.93045 2.85708 3.038 4.93045 3.76952 3.038 2.22235 2.37493e-10 -1.22628e-11 3.79526 2.42053 -1.22628e-11 -1.00552e-10 2.42053 1.6859 3.79526 2.42053 3.16242 2.59998 2.42053 1.6859 2.59998 1.75448 -1.00552e-10 -7.32806e-11 1.6859 1.22899 -7.32806e-11 -5.7837e-11 1.22899 0.640824 1.6859 1.22899 1.75448 1.08979 1.22899 0.640824 1.08979 0.507628 3.16242 2.59998 3.76952 2.27915 2.59998 1.75448 2.27915 1.3017 3.76952 2.27915 2.22235 1.12825 2.27915 1.3017 1.12825 0.331568 1.75448 1.08979 1.3017 0.63168 1.08979 0.507628 0.63168 0.0761309 1.3017 0.63168 0.331568 -0.224896 0.63168 0.0761309 -0.224896 -0.659913 0 1.81431 0 0.838845 1.81431 2.85708 0.838845 1.23896 0 0.838845 0 -0.0853614 0.838845 1.23896 -0.0853614 -0.418371 2.85708 3.038 1.23896 1.01864 3.038 2.22235 1.01864 0.283747 1.23896 1.01864 -0.418371 -1.05407 1.01864 0.283747 -1.05407 -1.87858 0 -0.0853614 0 -1.00447 -0.0853614 -0.418371 -1.00447 -2.15645 0 -1.00447 0 -2.38165 -1.00447 -2.15645 -2.38165 -4.26157 -0.418371 -1.05407 -2.15645 -3.22016 -1.05407 -1.87858 -3.22016 -4.19691 -2.15645 -3.22016 -4.26157 -5.73869 -3.22016 -4.19691 -5.73869 -6.85556 2.22235 1.12825 0.283747 -0.589586 1.12825 0.331568 -0.589586 -1.26166 0.283747 -0.589586 -1.87858 -2.68774 -0.589586 -1.26166 -2.68774 -3.34519 0.331568 -0.224896 -1.26166 -1.74606 -0.224896 -0.659913 -1.74606 -2.12543 -1.26166 -1.74606 -3.34519 -3.88721 -1.74606 -2.12543 -3.88721 -4.41962 -1.87858 -2.68774 -4.19691 -5.05413 -2.68774 -3.34519 -5.05413 -5.77363 -4.19691 -5.05413 -6.85556 -7.7027 -5.05413 -5.77363 -7.7027 -8.41552 -3.34519 -3.88721 -5.77363 -6.43121 -3.88721 -4.41962 -6.43121 -7.15388 -5.77363 -6.43121 -8.41552 -9.11248 -6.43121 -7.15388 -9.11248 -9.90829 -5.7837e-11 -5.05777e-11 0.640824 0.128122 -5.05777e-11 -4.7828e-11 0.128122 -0.300118 0.640824 0.128122 0.507628 -0.0640421 0.128122 -0.300118 -0.0640421 -0.668442 -4.7828e-11 -4.78083e-11 -0.300118 -0.595215 -4.78083e-11 -5.05793e-11 -0.595215 -0.742339 -0.300118 -0.595215 -0.668442 -1.26741 -0.595215 -0.742339 -1.26741 -1.68159 0.507628 -0.0640421 0.0761309 -0.447023 -0.0640421 -0.668442 -0.447023 -1.05382 0.0761309 -0.447023 -0.659913 -1.06851 -0.447023 -1.05382 -1.06851 -1.53225 -0.668442 -1.26741 -1.05382 -1.92058 -1.26741 -1.68159 -1.92058 -2.85321 -1.05382 -1.92058 -1.53225 -2.28635 -1.92058 -2.85321 -2.28635 -3.85702 -5.05793e-11 -5.6842e-11 -0.742339 -0.752646 -5.6842e-11 -6.44592e-11 -0.752646 -0.663612 -0.742339 -0.752646 -1.68159 -1.78852 -0.752646 -0.663612 -1.78852 -1.71095 -6.44592e-11 -7.39327e-11 -0.663612 -0.520144 -7.39327e-11 -8.97698e-11 -0.520144 -0.294493 -0.663612 -0.520144 -1.71095 -1.60163 -0.520144 -0.294493 -1.60163 -1.46867 -1.68159 -1.78852 -2.85321 -3.14666 -1.78852 -1.71095 -3.14666 -3.1389 -2.85321 -3.14666 -3.85702 -4.55393 -3.14666 -3.1389 -4.55393 -4.75797 -1.71095 -1.60163 -3.1389 -3.0458 -1.60163 -1.46867 -3.0458 -2.83471 -3.1389 -3.0458 -4.75797 -4.81727 -3.0458 -2.83471 -4.81727 -4.74976 -0.659913 -1.06851 -2.12543 -2.54269 -1.06851 -1.53225 -2.54269 -3.17312 -2.12543 -2.54269 -4.41962 -5.12135 -2.54269 -3.17312 -5.12135 -6.05408 -1.53225 -2.28635 -3.17312 -4.20575 -2.28635 -3.85702 -4.20575 -5.44551 -3.17312 -4.20575 -6.05408 -7.10746 -4.20575 -5.44551 -7.10746 -8.10248 -4.41962 -5.12135 -7.15388 -8.01002 -5.12135 -6.05408 -8.01002 -8.99821 -7.15388 -8.01002 -9.90829 -10.8337 -8.01002 -8.99821 -10.8337 -11.822 -6.05408 -7.10746 -8.99821 -9.98192 -7.10746 -8.10248 -9.98192 -10.9582 -8.99821 -9.98192 -11.822 -12.8241 -9.98192 -10.9582 -12.8241 -13.8401 -3.85702 -4.55393 -5.44551 -6.43039 -4.55393 -4.75797 -6.43039 -6.95149 -5.44551 -6.43039 -8.10248 -9.02078 -6.43039 -6.95149 -9.02078 -9.74791 -4.75797 -4.81727 -6.95149 -7.2752 -4.81727 -4.74976 -7.2752 -7.57566 -6.95149 -7.2752 -9.74791 -10.3261 -7.2752 -7.57566 -10.3261 -10.865 -8.10248 -9.02078 -10.9582 -11.9204 -9.02078 -9.74791 -11.9204 -12.82 -10.9582 -11.9204 -13.8401 -14.9041 -11.9204 -12.82 -14.9041 -16.0182 -9.74791 -10.3261 -12.82 -13.6112 -10.3261 -10.865 -13.6112 -14.2978 -12.82 -13.6112 -16.0182 -17.0784 -13.6112 -14.2978 -17.0784 -18.0022 -8.97698e-11 -2.23021e-10 -0.294493 0.539644 -2.23021e-10 1.22071e-08 0.539644 -0.916968 -0.294493 0.539644 -1.46867 -1.19035 0.539644 -0.916968 -1.19035 1.3446 1.22071e-08 6.25678e-09 -0.916968 0.91971 6.25678e-09 3.2119e-09 0.91971 1.41378 -0.916968 0.91971 1.3446 0.192594 0.91971 1.41378 0.192594 -0.770695 -1.46867 -1.19035 -2.83471 -2.08092 -1.19035 1.3446 -2.08092 -1.75275 -2.83471 -2.08092 -4.74976 -4.68386 -2.08092 -1.75275 -4.68386 -5.29375 1.3446 0.192594 -1.75275 -2.92903 0.192594 -0.770695 -2.92903 -3.97035 -1.75275 -2.92903 -5.29375 -6.26121 -2.92903 -3.97035 -6.26121 -7.21692 3.2119e-09 -6.71486e-11 1.41378 0.936118 -6.71486e-11 -8.8306e-11 0.936118 0.4129 1.41378 0.936118 -0.770695 -1.88035 0.936118 0.4129 -1.88035 -2.7947 -8.8306e-11 -9.91426e-12 0.4129 -0.40765 -9.91426e-12 -9.5598e-12 -0.40765 -1.16694 0.4129 -0.40765 -2.7947 -3.65062 -0.40765 -1.16694 -3.65062 -4.42407 -0.770695 -1.88035 -3.97035 -5.02819 -1.88035 -2.7947 -5.02819 -5.98787 -3.97035 -5.02819 -7.21692 -8.19685 -5.02819 -5.98787 -8.19685 -9.19298 -2.7947 -3.65062 -5.98787 -6.91791 -3.65062 -4.42407 -6.91791 -7.81661 -5.98787 -6.91791 -9.19298 -10.1432 -6.91791 -7.81661 -10.1432 -11.0913 -4.74976 -4.68386 -7.57566 -8.03338 -4.68386 -5.29375 -8.03338 -8.78147 -7.57566 -8.03338 -10.865 -11.4737 -8.03338 -8.78147 -11.4737 -12.1812 -5.29375 -6.26121 -8.78147 -9.63827 -6.26121 -7.21692 -9.63827 -10.5051 -8.78147 -9.63827 -12.1812 -12.9232 -9.63827 -10.5051 -12.9232 -13.7092 -10.865 -11.4737 -14.2978 -14.9434 -11.4737 -12.1812 -14.9434 -15.5924 -14.2978 -14.9434 -18.0022 -18.7706 -14.9434 -15.5924 -18.7706 -19.3966 -12.1812 -12.9232 -15.5924 -16.2546 -12.9232 -13.7092 -16.2546 -16.9476 -15.5924 -16.2546 -19.3966 -19.9542 -16.2546 -16.9476 -19.9542 -20.4931 -7.21692 -8.19685 -10.5051 -11.379 -8.19685 -9.19298 -11.379 -12.3162 -10.5051 -11.379 -13.7092 -14.5386 -11.379 -12.3162 -14.5386 -15.4304 -9.19298 -10.1432 -12.3162 -13.3114 -10.1432 -11.0913 -13.3114 -14.3421 -12.3162 -13.3114 -15.4304 -16.3781 -13.3114 -14.3421 -16.3781 -17.4457 -13.7092 -14.5386 -16.9476 -17.6739 -14.5386 -15.4304 -17.6739 -18.419 -16.9476 -17.6739 -20.4931 -21.0765 -17.6739 -18.419 -21.0765 -21.6001 -15.4304 -16.3781 -18.419 -19.2994 -16.3781 -17.4457 -19.2994 -20.3788 -18.419 -19.2994 -21.6001 -21.9575 -19.2994 -20.3788 -21.9575 -22.3124 -9.5598e-12 -1.87127e-11 -1.16694 -1.83335 -1.87127e-11 -1.66882e-11 -1.83335 -2.53282 -1.16694 -1.83335 -4.42407 -5.17935 -1.83335 -2.53282 -5.17935 -5.92684 -1.66882e-11 -1.57107e-11 -2.53282 -3.246 -1.57107e-11 -1.27913e-11 -3.246 -3.88325 -2.53282 -3.246 -5.92684 -6.72833 -3.246 -3.88325 -6.72833 -7.5764 -4.42407 -5.17935 -7.81661 -8.67256 -5.17935 -5.92684 -8.67256 -9.48286 -7.81661 -8.67256 -11.0913 -12.087 -8.67256 -9.48286 -12.087 -13.0445 -5.92684 -6.72833 -9.48286 -10.3227 -6.72833 -7.5764 -10.3227 -11.2281 -9.48286 -10.3227 -13.0445 -13.9728 -10.3227 -11.2281 -13.9728 -14.9012 -1.27913e-11 -1.10464e-11 -3.88325 -4.42122 -1.10464e-11 -9.7075e-12 -4.42122 -4.89026 -3.88325 -4.42122 -7.5764 -8.49625 -4.42122 -4.89026 -8.49625 -9.45557 -9.7075e-12 -9.12457e-12 -4.89026 -5.36109 -9.12457e-12 -8.30566e-12 -5.36109 -5.44923 -4.89026 -5.36109 -9.45557 -10.1823 -5.36109 -5.44923 -10.1823 -10.4041 -7.5764 -8.49625 -11.2281 -12.3002 -8.49625 -9.45557 -12.3002 -13.5823 -11.2281 -12.3002 -14.9012 -15.9368 -12.3002 -13.5823 -15.9368 -17.337 -9.45557 -10.1823 -13.5823 -14.7522 -10.1823 -10.4041 -14.7522 -15.1649 -13.5823 -14.7522 -17.337 -19.0272 -14.7522 -15.1649 -19.0272 -19.7452 -11.0913 -12.087 -14.3421 -15.4016 -12.087 -13.0445 -15.4016 -16.5121 -14.3421 -15.4016 -17.4457 -18.5744 -15.4016 -16.5121 -18.5744 -19.8773 -13.0445 -13.9728 -16.5121 -17.5268 -13.9728 -14.9012 -17.5268 -18.546 -16.5121 -17.5268 -19.8773 -20.9207 -17.5268 -18.546 -20.9207 -21.7569 -17.4457 -18.5744 -20.3788 -21.2648 -18.5744 -19.8773 -21.2648 -22.174 -20.3788 -21.2648 -22.3124 -22.1187 -21.2648 -22.174 -22.1187 -25.1106 -19.8773 -20.9207 -22.174 -22.2329 -20.9207 -21.7569 -22.2329 -23.8242 -22.174 -22.2329 -25.1106 -27.2426 -22.2329 -23.8242 -27.2426 -28.5593 -14.9012 -15.9368 -18.546 -19.4462 -15.9368 -17.337 -19.4462 -20.0242 -18.546 -19.4462 -21.7569 -22.1836 -19.4462 -20.0242 -22.1836 -22.7835 -17.337 -19.0272 -20.0242 -21.1515 -19.0272 -19.7452 -21.1515 -21.9141 -20.0242 -21.1515 -22.7835 -23.2615 -21.1515 -21.9141 -23.2615 -23.1816 -21.7569 -22.1836 -23.8242 -25.2834 -22.1836 -22.7835 -25.2834 -26.1756 -23.8242 -25.2834 -28.5593 -29.41 -25.2834 -26.1756 -29.41 -30.1464 -22.7835 -23.2615 -26.1756 -26.5031 -23.2615 -23.1816 -26.5031 -26.5056 -26.1756 -26.5031 -30.1464 -30.4319 -26.5031 -26.5056 -30.4319 -30.4547 
SCALARS y_displacement double 1
LOOKUP_TABLE default