# vtk DataFile Version 3.0
#This file was generated by the deal.II library on 2016/2/8 at 16:08:03
ASCII
DATASET UNSTRUCTURED_GRID

POINTS 6584 double
0 0 0
0.05 0 0
0 0.05 0
0.05 0.05 0
0.05 0 0
0.1 0 0
0.05 0.05 0
0.1 0.05 0
0.1 0 0
0.15 0 0
0.1 0.05 0
0.15 0.05 0
0.15 0 0
0.2 0 0
0.15 0.05 0
0.2 0.05 0
0.2 0 0
0.25 0 0
0.2 0.05 0
0.25 0.05 0
0.25 0 0
0.3 0 0
0.25 0.05 0
0.3 0.05 0
0.3 0 0
0.35 0 0
0.3 0.05 0
0.35 0.05 0
0.35 0 0
0.4 0 0
0.35 0.05 0
0.4 0.05 0
0.4 0 0
0.45 0 0
0.4 0.05 0
0.45 0.05 0
0.45 0 0
0.5 0 0
0.45 0.05 0
0.5 0.05 0
0.5 0 0
0.55 0 0
0.5 0.05 0
0.55 0.05 0
0.55 0 0
0.6 0 0
0.55 0.05 0
0.6 0.05 0
0.6 0 0
0.65 0 0
0.6 0.05 0
0.65 0.05 0
0.65 0 0
0.7 0 0
0.65 0.05 0
0.7 0.05 0
0.7 0 0
0.75 0 0
0.7 0.05 0
0.75 0.05 0
0.75 0 0
0.8 0 0
0.75 0.05 0
0.8 0.05 0
0.8 0 0
0.85 0 0
0.8 0.05 0
0.85 0.05 0
0.85 0 0
0.9 0 0
0.85 0.05 0
0.9 0.05 0
0.9 0 0
0.95 0 0
0.9 0.05 0
0.95 0.05 0
0.95 0 0
1 0 0
0.95 0.05 0
1 0.05 0
1 0 0
1.05 0 0
1 0.05 0
1.05 0.05 0
1.05 0 0
1.1 0 0
1.05 0.05 0
1.1 0.05 0
1.1 0 0
1.15 0 0
1.1 0.05 0
1.15 0.05 0
1.15 0 0
1.2 0 0
1.15 0.05 0
1.2 0.05 0
1.2 0 0
1.25 0 0
1.2 0.05 0
1.25 0.05 0
1.25 0 0
1.3 0 0
1.25 0.05 0
1.3 0.05 0
1.4 0 0
1.45 0 0
1.4 0.05 0
1.45 0.05 0
1.45 0 0
1.5 0 0
1.45 0.05 0
1.5 0.05 0
1.5 0 0
1.55 0 0
1.5 0.05 0
1.55 0.05 0
1.55 0 0
1.6 0 0
1.55 0.05 0
1.6 0.05 0
1.6 0 0
1.65 0 0
1.6 0.05 0
1.65 0.05 0
1.65 0 0
1.7 0 0
1.65 0.05 0
1.7 0.05 0
1.7 0 0
1.75 0 0
1.7 0.05 0
1.75 0.05 0
1.75 0 0
1.8 0 0
1.75 0.05 0
1.8 0.05 0
1.8 0 0
1.85 0 0
1.8 0.05 0
1.85 0.05 0
1.85 0 0
1.9 0 0
1.85 0.05 0
1.9 0.05 0
1.9 0 0
1.95 0 0
1.9 0.05 0
1.95 0.05 0
1.95 0 0
2 0 0
1.95 0.05 0
2 0.05 0
0 0.05 0
0.05 0.05 0
0 0.1 0
0.05 0.1 0
0.05 0.05 0
0.1 0.05 0
0.05 0.1 0
0.1 0.1 0
0.1 0.05 0
0.15 0.05 0
0.1 0.1 0
0.15 0.1 0
0.15 0.05 0
0.2 0.05 0
0.15 0.1 0
0.2 0.1 0
0.2 0.05 0
0.25 0.05 0
0.2 0.1 0
0.25 0.1 0
0.25 0.05 0
0.3 0.05 0
0.25 0.1 0
0.3 0.1 0
0.3 0.05 0
0.35 0.05 0
0.3 0.1 0
0.35 0.1 0
0.35 0.05 0
0.4 0.05 0
0.35 0.1 0
0.4 0.1 0
0.4 0.05 0
0.45 0.05 0
0.4 0.1 0
0.45 0.1 0
1.1 0.05 0
1.15 0.05 0
1.1 0.1 0
1.15 0.1 0
1.15 0.05 0
1.2 0.05 0
1.15 0.1 0
1.2 0.1 0
1.2 0.05 0
1.25 0.05 0
1.2 0.1 0
1.25 0.1 0
1.25 0.05 0
1.3 0.05 0
1.25 0.1 0
1.3 0.1 0
1.3 0.05 0
1.35 0.05 0
1.3 0.1 0
1.35 0.1 0
1.5 0.05 0
1.55 0.05 0
1.5 0.1 0
1.55 0.1 0
1.55 0.05 0
1.6 0.05 0
1.55 0.1 0
1.6 0.1 0
1.6 0.05 0
1.65 0.05 0
1.6 0.1 0
1.65 0.1 0
1.65 0.05 0
1.7 0.05 0
1.65 0.1 0
1.7 0.1 0
1.7 0.05 0
1.75 0.05 0
1.7 0.1 0
1.75 0.1 0
1.75 0.05 0
1.8 0.05 0
1.75 0.1 0
1.8 0.1 0
1.8 0.05 0
1.85 0.05 0
1.8 0.1 0
1.85 0.1 0
1.85 0.05 0
1.9 0.05 0
1.85 0.1 0
1.9 0.1 0
1.9 0.05 0
1.95 0.05 0
1.9 0.1 0
1.95 0.1 0
1.95 0.05 0
2 0.05 0
1.95 0.1 0
2 0.1 0
0.1 0.1 0
0.15 0.1 0
0.1 0.15 0
0.15 0.15 0
0.15 0.1 0
0.2 0.1 0
0.15 0.15 0
0.2 0.15 0
0.2 0.1 0
0.25 0.1 0
0.2 0.15 0
0.25 0.15 0
0.25 0.1 0
0.3 0.1 0
0.25 0.15 0
0.3 0.15 0
0.3 0.1 0
0.35 0.1 0
0.3 0.15 0
0.35 0.15 0
0.35 0.1 0
0.4 0.1 0
0.35 0.15 0
0.4 0.15 0
1.15 0.1 0
1.2 0.1 0
1.15 0.15 0
1.2 0.15 0
1.2 0.1 0
1.25 0.1 0
1.2 0.15 0
1.25 0.15 0
1.3 0.1 0
1.35 0.1 0
1.3 0.15 0
1.35 0.15 0
1.35 0.1 0
1.4 0.1 0
1.35 0.15 0
1.4 0.15 0
1.4 0.1 0
1.45 0.1 0
1.4 0.15 0
1.45 0.15 0
1.6 0.1 0
1.65 0.1 0
1.6 0.15 0
1.65 0.15 0
1.65 0.1 0
1.7 0.1 0
1.65 0.15 0
1.7 0.15 0
1.7 0.1 0
1.75 0.1 0
1.7 0.15 0
1.75 0.15 0
1.75 0.1 0
1.8 0.1 0
1.75 0.15 0
1.8 0.15 0
1.8 0.1 0
1.85 0.1 0
1.8 0.15 0
1.85 0.15 0
1.85 0.1 0
1.9 0.1 0
1.85 0.15 0
1.9 0.15 0
1.9 0.1 0
1.95 0.1 0
1.9 0.15 0
1.95 0.15 0
1.95 0.1 0
2 0.1 0
1.95 0.15 0
2 0.15 0
0.2 0.15 0
0.25 0.15 0
0.2 0.2 0
0.25 0.2 0
0.25 0.15 0
0.3 0.15 0
0.25 0.2 0
0.3 0.2 0
0.3 0.15 0
0.35 0.15 0
0.3 0.2 0
0.35 0.2 0
0.35 0.15 0
0.4 0.15 0
0.35 0.2 0
0.4 0.2 0
0.4 0.15 0
0.45 0.15 0
0.4 0.2 0
0.45 0.2 0
0.6 0.15 0
0.65 0.15 0
0.6 0.2 0
0.65 0.2 0
0.65 0.15 0
0.7 0.15 0
0.65 0.2 0
0.7 0.2 0
0.7 0.15 0
0.75 0.15 0
0.7 0.2 0
0.75 0.2 0
0.75 0.15 0
0.8 0.15 0
0.75 0.2 0
0.8 0.2 0
0.8 0.15 0
0.85 0.15 0
0.8 0.2 0
0.85 0.2 0
0.85 0.15 0
0.9 0.15 0
0.85 0.2 0
0.9 0.2 0
0.9 0.15 0
0.95 0.15 0
0.9 0.2 0
0.95 0.2 0
0.95 0.15 0
1 0.15 0
0.95 0.2 0
1 0.2 0
1 0.15 0
1.05 0.15 0
1 0.2 0
1.05 0.2 0
1.15 0.15 0
1.2 0.15 0
1.15 0.2 0
1.2 0.2 0
1.4 0.15 0
1.45 0.15 0
1.4 0.2 0
1.45 0.2 0
1.45 0.15 0
1.5 0.15 0
1.45 0.2 0
1.5 0.2 0
1.65 0.15 0
1.7 0.15 0
1.65 0.2 0
1.7 0.2 0
1.7 0.15 0
1.75 0.15 0
1.7 0.2 0
1.75 0.2 0
1.75 0.15 0
1.8 0.15 0
1.75 0.2 0
1.8 0.2 0
1.8 0.15 0
1.85 0.15 0
1.8 0.2 0
1.85 0.2 0
1.85 0.15 0
1.9 0.15 0
1.85 0.2 0
1.9 0.2 0
1.9 0.15 0
1.95 0.15 0
1.9 0.2 0
1.95 0.2 0
1.95 0.15 0
2 0.15 0
1.95 0.2 0
2 0.2 0
0 0.2 0
0.05 0.2 0
0 0.25 0
0.05 0.25 0
0.05 0.2 0
0.1 0.2 0
0.05 0.25 0
0.1 0.25 0
0.3 0.2 0
0.35 0.2 0
0.3 0.25 0
0.35 0.25 0
0.35 0.2 0
0.4 0.2 0
0.35 0.25 0
0.4 0.25 0
0.4 0.2 0
0.45 0.2 0
0.4 0.25 0
0.45 0.25 0
0.45 0.2 0
0.5 0.2 0
0.45 0.25 0
0.5 0.25 0
0.7 0.2 0
0.75 0.2 0
0.7 0.25 0
0.75 0.25 0
0.75 0.2 0
0.8 0.2 0
0.75 0.25 0
0.8 0.25 0
0.8 0.2 0
0.85 0.2 0
0.8 0.25 0
0.85 0.25 0
0.85 0.2 0
0.9 0.2 0
0.85 0.25 0
0.9 0.25 0
0.9 0.2 0
0.95 0.2 0
0.9 0.25 0
0.95 0.25 0
0.95 0.2 0
1 0.2 0
0.95 0.25 0
1 0.25 0
1 0.2 0
1.05 0.2 0
1 0.25 0
1.05 0.25 0
1.1 0.2 0
1.15 0.2 0
1.1 0.25 0
1.15 0.25 0
1.25 0.2 0
1.3 0.2 0
1.25 0.25 0
1.3 0.25 0
1.45 0.2 0
1.5 0.2 0
1.45 0.25 0
1.5 0.25 0
1.5 0.2 0
1.55 0.2 0
1.5 0.25 0
1.55 0.25 0
1.55 0.2 0
1.6 0.2 0
1.55 0.25 0
1.6 0.25 0
1.75 0.2 0
1.8 0.2 0
1.75 0.25 0
1.8 0.25 0
1.8 0.2 0
1.85 0.2 0
1.8 0.25 0
1.85 0.25 0
1.85 0.2 0
1.9 0.2 0
1.85 0.25 0
1.9 0.25 0
1.9 0.2 0
1.95 0.2 0
1.9 0.25 0
1.95 0.25 0
1.95 0.2 0
2 0.2 0
1.95 0.25 0
2 0.25 0
0 0.25 0
0.05 0.25 0
0 0.3 0
0.05 0.3 0
0.05 0.25 0
0.1 0.25 0
0.05 0.3 0
0.1 0.3 0
0.1 0.25 0
0.15 0.25 0
0.1 0.3 0
0.15 0.3 0
0.15 0.25 0
0.2 0.25 0
0.15 0.3 0
0.2 0.3 0
0.4 0.25 0
0.45 0.25 0
0.4 0.3 0
0.45 0.3 0
0.45 0.25 0
0.5 0.25 0
0.45 0.3 0
0.5 0.3 0
0.5 0.25 0
0.55 0.25 0
0.5 0.3 0
0.55 0.3 0
0.55 0.25 0
0.6 0.25 0
0.55 0.3 0
0.6 0.3 0
0.85 0.25 0
0.9 0.25 0
0.85 0.3 0
0.9 0.3 0
0.9 0.25 0
0.95 0.25 0
0.9 0.3 0
0.95 0.3 0
0.95 0.25 0
1 0.25 0
0.95 0.3 0
1 0.3 0
1.2 0.25 0
1.25 0.25 0
1.2 0.3 0
1.25 0.3 0
1.25 0.25 0
1.3 0.25 0
1.25 0.3 0
1.3 0.3 0
1.3 0.25 0
1.35 0.25 0
1.3 0.3 0
1.35 0.3 0
1.35 0.25 0
1.4 0.25 0
1.35 0.3 0
1.4 0.3 0
1.55 0.25 0
1.6 0.25 0
1.55 0.3 0
1.6 0.3 0
1.6 0.25 0
1.65 0.25 0
1.6 0.3 0
1.65 0.3 0
1.65 0.25 0
1.7 0.25 0
1.65 0.3 0
1.7 0.3 0
1.85 0.25 0
1.9 0.25 0
1.85 0.3 0
1.9 0.3 0
1.9 0.25 0
1.95 0.25 0
1.9 0.3 0
1.95 0.3 0
1.95 0.25 0
2 0.25 0
1.95 0.3 0
2 0.3 0
0 0.3 0
0.05 0.3 0
0 0.35 0
0.05 0.35 0
0.05 0.3 0
0.1 0.3 0
0.05 0.35 0
0.1 0.35 0
0.1 0.3 0
0.15 0.3 0
0.1 0.35 0
0.15 0.35 0
0.15 0.3 0
0.2 0.3 0
0.15 0.35 0
0.2 0.35 0
0.2 0.3 0
0.25 0.3 0
0.2 0.35 0
0.25 0.35 0
0.25 0.3 0
0.3 0.3 0
0.25 0.35 0
0.3 0.35 0
0.5 0.3 0
0.55 0.3 0
0.5 0.35 0
0.55 0.35 0
0.55 0.3 0
0.6 0.3 0
0.55 0.35 0
0.6 0.35 0
0.6 0.3 0
0.65 0.3 0
0.6 0.35 0
0.65 0.35 0
0.65 0.3 0
0.7 0.3 0
0.65 0.35 0
0.7 0.35 0
0.95 0.3 0
1 0.3 0
0.95 0.35 0
1 0.35 0
1.05 0.3 0
1.1 0.3 0
1.05 0.35 0
1.1 0.35 0
1.2 0.3 0
1.25 0.3 0
1.2 0.35 0
1.25 0.35 0
1.25 0.3 0
1.3 0.3 0
1.25 0.35 0
1.3 0.35 0
1.3 0.3 0
1.35 0.3 0
1.3 0.35 0
1.35 0.35 0
1.35 0.3 0
1.4 0.3 0
1.35 0.35 0
1.4 0.35 0
1.4 0.3 0
1.45 0.3 0
1.4 0.35 0
1.45 0.35 0
1.45 0.3 0
1.5 0.3 0
1.45 0.35 0
1.5 0.35 0
1.65 0.3 0
1.7 0.3 0
1.65 0.35 0
1.7 0.35 0
1.7 0.3 0
1.75 0.3 0
1.7 0.35 0
1.75 0.35 0
1.95 0.3 0
2 0.3 0
1.95 0.35 0
2 0.35 0
0 0.35 0
0.05 0.35 0
0 0.4 0
0.05 0.4 0
0.05 0.35 0
0.1 0.35 0
0.05 0.4 0
0.1 0.4 0
0.1 0.35 0
0.15 0.35 0
0.1 0.4 0
0.15 0.4 0
0.15 0.35 0
0.2 0.35 0
0.15 0.4 0
0.2 0.4 0
0.2 0.35 0
0.25 0.35 0
0.2 0.4 0
0.25 0.4 0
0.25 0.35 0
0.3 0.35 0
0.25 0.4 0
0.3 0.4 0
0.3 0.35 0
0.35 0.35 0
0.3 0.4 0
0.35 0.4 0
0.35 0.35 0
0.4 0.35 0
0.35 0.4 0
0.4 0.4 0
0.6 0.35 0
0.65 0.35 0
0.6 0.4 0
0.65 0.4 0
0.65 0.35 0
0.7 0.35 0
0.65 0.4 0
0.7 0.4 0
0.7 0.35 0
0.75 0.35 0
0.7 0.4 0
0.75 0.4 0
0.75 0.35 0
0.8 0.35 0
0.75 0.4 0
0.8 0.4 0
0.8 0.35 0
0.85 0.35 0
0.8 0.4 0
0.85 0.4 0
1.15 0.35 0
1.2 0.35 0
1.15 0.4 0
1.2 0.4 0
1.2 0.35 0
1.25 0.35 0
1.2 0.4 0
1.25 0.4 0
1.25 0.35 0
1.3 0.35 0
1.25 0.4 0
1.3 0.4 0
1.3 0.35 0
1.35 0.35 0
1.3 0.4 0
1.35 0.4 0
1.35 0.35 0
1.4 0.35 0
1.35 0.4 0
1.4 0.4 0
1.4 0.35 0
1.45 0.35 0
1.4 0.4 0
1.45 0.4 0
1.45 0.35 0
1.5 0.35 0
1.45 0.4 0
1.5 0.4 0
1.5 0.35 0
1.55 0.35 0
1.5 0.4 0
1.55 0.4 0
1.7 0.35 0
1.75 0.35 0
1.7 0.4 0
1.75 0.4 0
1.75 0.35 0
1.8 0.35 0
1.75 0.4 0
1.8 0.4 0
1.8 0.35 0
1.85 0.35 0
1.8 0.4 0
1.85 0.4 0
0 0.4 0
0.05 0.4 0
0 0.45 0
0.05 0.45 0
0.05 0.4 0
0.1 0.4 0
0.05 0.45 0
0.1 0.45 0
0.1 0.4 0
0.15 0.4 0
0.1 0.45 0
0.15 0.45 0
0.15 0.4 0
0.2 0.4 0
0.15 0.45 0
0.2 0.45 0
0.2 0.4 0
0.25 0.4 0
0.2 0.45 0
0.25 0.45 0
0.25 0.4 0
0.3 0.4 0
0.25 0.45 0
0.3 0.45 0
0.3 0.4 0
0.35 0.4 0
0.3 0.45 0
0.35 0.45 0
0.35 0.4 0
0.4 0.4 0
0.35 0.45 0
0.4 0.45 0
0.4 0.4 0
0.45 0.4 0
0.4 0.45 0
0.45 0.45 0
0.45 0.4 0
0.5 0.4 0
0.45 0.45 0
0.5 0.45 0
0.5 0.4 0
0.55 0.4 0
0.5 0.45 0
0.55 0.45 0
0.7 0.4 0
0.75 0.4 0
0.7 0.45 0
0.75 0.45 0
0.75 0.4 0
0.8 0.4 0
0.75 0.45 0
0.8 0.45 0
0.8 0.4 0
0.85 0.4 0
0.8 0.45 0
0.85 0.45 0
0.85 0.4 0
0.9 0.4 0
0.85 0.45 0
0.9 0.45 0
0.9 0.4 0
0.95 0.4 0
0.9 0.45 0
0.95 0.45 0
0.95 0.4 0
1 0.4 0
0.95 0.45 0
1 0.45 0
1 0.4 0
1.05 0.4 0
1 0.45 0
1.05 0.45 0
1.15 0.4 0
1.2 0.4 0
1.15 0.45 0
1.2 0.45 0
1.2 0.4 0
1.25 0.4 0
1.2 0.45 0
1.25 0.45 0
1.25 0.4 0
1.3 0.4 0
1.25 0.45 0
1.3 0.45 0
1.3 0.4 0
1.35 0.4 0
1.3 0.45 0
1.35 0.45 0
1.35 0.4 0
1.4 0.4 0
1.35 0.45 0
1.4 0.45 0
1.4 0.4 0
1.45 0.4 0
1.4 0.45 0
1.45 0.45 0
1.45 0.4 0
1.5 0.4 0
1.45 0.45 0
1.5 0.45 0
1.5 0.4 0
1.55 0.4 0
1.5 0.45 0
1.55 0.45 0
1.55 0.4 0
1.6 0.4 0
1.55 0.45 0
1.6 0.45 0
1.6 0.4 0
1.65 0.4 0
1.6 0.45 0
1.65 0.45 0
1.8 0.4 0
1.85 0.4 0
1.8 0.45 0
1.85 0.45 0
1.85 0.4 0
1.9 0.4 0
1.85 0.45 0
1.9 0.45 0
1.9 0.4 0
1.95 0.4 0
1.9 0.45 0
1.95 0.45 0
0 0.45 0
0.05 0.45 0
0 0.5 0
0.05 0.5 0
0.05 0.45 0
0.1 0.45 0
0.05 0.5 0
0.1 0.5 0
0.1 0.45 0
0.15 0.45 0
0.1 0.5 0
0.15 0.5 0
0.15 0.45 0
0.2 0.45 0
0.15 0.5 0
0.2 0.5 0
0.2 0.45 0
0.25 0.45 0
[...]
POINT_DATA 6584
SCALARS x_displacement double 1
LOOKUP_TABLE default
0 1.3771 0 0.795919 1.3771 2.42385 0.795919 1.63711 2.42385 3.29482 1.63711 2.38164 3.29482 4.04035 2.38164 3.04212 4.04035 4.69481 3.04212 3.63655 4.69481 5.29652 3.63655 4.17896 5.29652 5.88816 4.17896 4.6861 5.88816 6.49996 4.6861 5.18876 6.49996 7.1474 5.18876 5.69237 7.1474 7.81712 5.69237 6.21027 7.81712 8.47938 6.21027 6.74197 8.47938 9.09555 6.74197 7.30409 9.09555 9.66055 7.30409 7.893 9.66055 10.2009 7.893 8.50434 10.2009 10.7443 8.50434 9.12136 10.7443 11.2956 9.12136 9.73722 11.2956 11.8546 9.73722 10.3522 11.8546 12.421 10.3522 10.9663 12.421 12.9946 10.9663 11.5802 12.9946 13.5751 11.5802 12.1927 13.5751 14.1796 12.1927 12.7862 14.1796 14.8539 12.7862 13.3383 14.8539 15.5858 13.3383 13.8686 15.5858 16.2803 13.8686 14.3459 16.2803 16.8007 14.3459 14.7435 16.8007 17.0816 14.7435 15.066 18.0011 17.7591 15.7076 15.8642 17.7591 17.5495 15.8642 16.2884 17.5495 18.2039 16.2884 15.856 18.2039 18.7429 15.856 15.9693 18.7429 19.1163 15.9693 16.6539 19.1163 19.5943 16.6539 16.8626 19.5943 19.7267 16.8626 17.1588 19.7267 19.8052 17.1588 17.4437 19.8052 19.8825 17.4437 17.6332 19.8825 19.9179 17.6332 17.7368 19.9179 19.915 17.7368 17.774 19.915 19.9087 17.774 17.7808 0 0.795919 0 0.528904 0.795919 1.63711 0.528904 1.09368 1.63711 2.38164 1.09368 1.65817 2.38164 3.04212 1.65817 2.19569 3.04212 3.63655 2.19569 2.69186 3.63655 4.17896 2.69186 3.1414 4.17896 4.6861 3.1414 3.53253 4.6861 5.18876 3.53253 3.86035 5.18876 5.69237 3.86035 4.23821 13.3383 13.8686 11.9616 12.2839 13.8686 14.3459 12.2839 12.5557 14.3459 14.7435 12.5557 12.8408 14.7435 15.066 12.8408 13.11 15.066 15.3883 13.11 13.378 16.2884 15.856 14.2836 14.5022 15.856 15.9693 14.5022 15.1925 15.9693 16.6539 15.1925 12.826 16.6539 16.8626 12.826 14.2874 16.8626 17.1588 14.2874 14.9138 17.1588 17.4437 14.9138 15.2849 17.4437 17.6332 15.2849 15.5476 17.6332 17.7368 15.5476 15.6762 17.7368 17.774 15.6762 15.7151 17.774 17.7808 15.7151 15.721 1.09368 1.65817 0.598998 1.02311 1.65817 2.19569 1.02311 1.43598 2.19569 2.69186 1.43598 1.84663 2.69186 3.1414 1.84663 2.22158 3.1414 3.53253 2.22158 2.53865 3.53253 3.86035 2.53865 2.7767 12.2839 12.5557 10.7269 10.7373 12.5557 12.8408 10.7373 10.7872 13.11 13.378 11.0402 11.3353 13.378 13.6222 11.3353 11.6172 13.6222 13.9311 11.6172 11.918 15.1925 12.826 12.6621 13.4208 12.826 14.2874 13.4208 13.0107 14.2874 14.9138 13.0107 13.2268 14.9138 15.2849 13.2268 13.4196 15.2849 15.5476 13.4196 13.6156 15.5476 15.6762 13.6156 13.7167 15.6762 15.7151 13.7167 13.8018 15.7151 15.721 13.8018 13.7811 1.43598 1.84663 0.72799 1.08686 1.84663 2.22158 1.08686 1.40301 2.22158 2.53865 1.40301 1.71717 2.53865 2.7767 1.71717 2.0313 2.7767 3.08535 2.0313 2.34321 3.36227 4.02512 3.2639 3.48783 4.02512 4.99897 3.48783 4.43638 4.99897 6.36346 4.43638 3.60932 6.36346 6.73532 3.60932 7.95159 6.73532 7.85597 7.95159 6.50673 7.85597 8.4567 6.50673 6.96771 8.4567 9.11008 6.96771 8.39422 9.11008 9.89437 8.39422 9.99346 9.89437 11.3373 9.99346 9.18123 10.7269 10.7373 9.0813 9.02315 11.6172 11.918 9.58303 9.88039 11.918 12.209 9.88039 10.1808 13.4208 13.0107 11.1274 11.3791 13.0107 13.2268 11.3791 11.7079 13.2268 13.4196 11.7079 11.3086 13.4196 13.6156 11.3086 11.555 13.6156 13.7167 11.555 11.958 13.7167 13.8018 11.958 12.0455 13.8018 13.7811 12.0455 11.9824 0 -0.211341 0 -0.225573 -0.211341 0.0533053 -0.225573 -0.765665 1.40301 1.71717 0.63728 0.961413 1.71717 2.0313 0.961413 1.26595 2.0313 2.34321 1.26595 1.58879 2.34321 2.65466 1.58879 1.91602 4.43638 3.60932 3.33916 3.86701 3.60932 7.95159 3.86701 2.66665 7.95159 6.50673 2.66665 4.88517 6.50673 6.96771 4.88517 3.78293 6.96771 8.39422 3.78293 3.70409 8.39422 9.99346 3.70409 7.28429 9.99346 9.18123 7.28429 7.43926 9.05638 9.0813 7.50069 7.50778 8.82057 8.91087 7.43801 6.47745 9.88039 10.1808 7.8843 8.19547 10.1808 10.4603 8.19547 8.47906 10.4603 10.789 8.47906 8.78172 11.7079 11.3086 9.73148 9.96953 11.3086 11.555 9.96953 10.4321 11.555 11.958 10.4321 9.87504 11.958 12.0455 9.87504 10.5752 12.0455 11.9824 10.5752 10.3762 0 -0.225573 0 -0.0612193 -0.225573 -0.765665 -0.0612193 -0.0687202 -0.765665 -0.177388 -0.0687202 -0.199682 -0.177388 0.0265641 -0.199682 -0.696521 1.26595 1.58879 0.500958 0.836942 1.58879 1.91602 0.836942 1.15563 1.91602 2.22247 1.15563 1.50213 2.22247 2.5591 1.50213 1.85175 4.88517 3.78293 3.6723 4.23292 3.78293 3.70409 4.23292 5.13549 3.70409 7.28429 5.13549 5.88311 7.54442 7.43801 5.74991 5.47293 7.43801 6.47745 5.47293 5.64187 6.47745 7.46427 5.64187 5.52097 7.46427 7.5529 5.52097 5.50561 8.47906 8.78172 6.47812 6.79119 8.78172 9.05797 6.79119 7.06615 9.05797 9.34899 7.06615 7.37075 10.4321 9.87504 8.33748 8.56885 9.87504 10.5752 8.56885 8.87564 10.5752 10.3762 8.87564 10.819 0 -0.0612193 0 -0.0161897 -0.0612193 -0.0687202 -0.0161897 -0.130374 -0.0687202 -0.199682 -0.130374 -0.145444 -0.199682 -0.696521 -0.145444 -0.126675 -0.696521 -0.336157 -0.126675 -0.355864 -0.336157 -0.121842 -0.355864 -0.867402 1.15563 1.50213 0.414589 0.799751 1.50213 1.85175 0.799751 1.11941 1.85175 2.18923 1.11941 1.45105 2.18923 2.57506 1.45105 1.77617 5.13549 5.88311 3.52826 4.13673 5.79074 5.82212 4.18035 4.19804 5.74991 5.47293 4.46646 4.05888 5.47293 5.64187 4.05888 3.98982 5.64187 5.52097 3.98982 4.15408 5.52097 5.50561 4.15408 4.18901 5.50561 5.87207 4.18901 4.37391 5.87207 6.16137 4.37391 3.91203 7.06615 7.37075 5.02874 5.32704 7.37075 7.68077 5.32704 5.62604 8.87564 10.819 6.73135 6.22788 0 -0.0161897 0 -0.0275381 -0.0161897 -0.130374 -0.0275381 -0.0649527 -0.130374 -0.145444 -0.0649527 -0.100663 -0.145444 -0.126675 -0.100663 -0.223075 -0.126675 -0.355864 -0.223075 -0.24976 -0.355864 -0.867402 -0.24976 -0.285858 -0.867402 -0.4375 -0.285858 -0.645191 -0.4375 -0.303727 -0.645191 -0.936679 1.11941 1.45105 0.402452 0.738826 1.45105 1.77617 0.738826 1.00253 1.77617 2.09948 1.00253 1.27801 2.09948 2.42605 1.27801 1.56114 2.42605 2.79712 1.56114 1.83655 4.24284 4.46646 2.42677 1.43022 4.46646 4.05888 1.43022 2.27105 4.05888 3.98982 2.27105 2.60838 3.98982 4.15408 2.60838 2.81405 4.15408 4.18901 2.81405 3.01968 4.18901 4.37391 3.01968 3.32815 4.37391 3.91203 3.32815 4.143 3.91203 4.59373 4.143 2.02153 5.32704 5.62604 3.33235 3.59561 5.62604 5.90681 3.59561 3.8331 5.90681 6.22059 3.8331 4.09291 0 -0.0275381 0 -0.0115797 -0.0275381 -0.0649527 -0.0115797 -0.0326358 -0.0649527 -0.100663 -0.0326358 -0.0702472 -0.100663 -0.223075 -0.0702472 -0.10435 -0.223075 -0.24976 -0.10435 -0.149028 -0.24976 -0.285858 -0.149028 -0.333003 -0.285858 -0.645191 -0.333003 -0.459138 -0.645191 -0.936679 -0.459138 -0.926714 -0.936679 0.295863 -0.926714 -2.47495 0.295863 -0.239743 -2.47495 -0.329466 -0.239743 0.0846898 -0.329466 -0.87997 1.00253 1.27801 0.302502 0.548019 1.27801 1.56114 0.548019 0.739413 1.56114 1.83655 0.739413 0.894024 1.83655 2.07462 0.894024 1.01119 2.07462 2.2833 1.01119 1.06839 2.2833 2.44387 1.06839 1.05 2.44387 2.48567 1.05 1.03888 2.42677 1.43022 1.23367 1.30118 1.43022 2.27105 1.30118 1.19427 2.27105 2.60838 1.19427 1.28216 2.60838 2.81405 1.28216 1.42266 2.81405 3.01968 1.42266 1.5432 3.01968 3.32815 1.5432 1.58301 3.32815 4.143 1.58301 1.5238 4.143 2.02153 1.5238 1.74738 2.02153 2.72104 1.74738 1.3562 2.72104 2.96256 1.3562 0.9299 3.8331 4.09291 1.77842 1.98139 4.09291 4.35239 1.98139 2.19243 4.35239 4.62336 2.19243 2.41026 0 -0.0115797 0 -2.93048e-12 -0.0115797 -0.0326358 -2.93048e-12 -9.26694e-12 -0.0326358 -0.0702472 -9.26694e-12 -1.54171e-11 -0.0702472 -0.10435 -1.54171e-11 -2.16564e-11 -0.10435 -0.149028 -2.16564e-11 -2.47869e-11 -0.149028 -0.333003 -2.47869e-11 -2.77214e-11 -0.333003 -0.459138 -2.77214e-11 -2.86244e-11 -0.459138 -0.926714 -2.86244e-11 -2.78431e-11 -0.926714 -2.47495 -2.78431e-11 -1.59284e-11 -2.47495 -0.329466 -1.59284e-11 -2.25879e-11 -0.329466 -0.87997 -2.25879e-11 -1.35114e-12 -0.87997 -0.22382 -1.35114e-12 1.52971e-12 -0.22382 -0.0182126 1.52971e-12 2.2116e-12 0.548019 0.739413 1.06262e-12 8.41711e-13 0.739413 0.894024 8.41711e-13 7.30062e-13 0.894024 1.01119 7.30062e-13 6.87634e-13 1.01119 1.06839 6.87634e-13 6.43551e-13 1.06839 1.05 6.43551e-13 5.78821e-13 1.08555 1.23367 1.79779e-12 -2.33852e-11 1.23367 1.30118 -2.33852e-11 2.41384e-10 1.30118 1.19427 2.41384e-10 2.08066e-10 1.19427 1.28216 2.08066e-10 2.76064e-10 1.28216 1.42266 2.76064e-10 3.23969e-10 1.42266 1.5432 3.23969e-10 5.63716e-10 1.5432 1.58301 5.63716e-10 7.73345e-10 1.58301 1.5238 7.73345e-10 2.42825e-10 1.5238 1.74738 2.42825e-10 -5.10186e-10 1.74738 1.3562 -5.10186e-10 -3.68196e-10 1.3562 0.9299 -3.68196e-10 -2.30512e-10 0.9299 1.29724 -2.30512e-10 8.56585e-12 1.29724 1.57099 8.56585e-12 4.50295e-12 1.98139 2.19243 3.11436e-12 2.62201e-12 2.19243 2.41026 2.62201e-12 2.40466e-12 2.41026 2.42008 2.40466e-12 2.37298e-12 0 -2.93048e-12 0 0.0115797 -2.93048e-12 -9.26694e-12 0.0115797 0.0326358 -9.26694e-12 -1.54171e-11 0.0326358 0.0702472 -1.54171e-11 -2.16564e-11 0.0702472 0.10435 -2.16564e-11 -2.47869e-11 0.10435 0.149028 -2.47869e-11 -2.77214e-11 0.149028 0.333003 -2.77214e-11 -2.86244e-11 0.333003 0.459138 -2.86244e-11 -2.78431e-11 0.459138 0.926714 -2.78431e-11 -1.59284e-11 0.926714 2.47495 -1.59284e-11 -2.25879e-11 2.47495 0.329466 -2.25879e-11 -1.35114e-12 0.329466 0.87997 -1.35114e-12 1.52971e-12 0.87997 0.22382 1.52971e-12 2.2116e-12 0.22382 0.0182126 1.06262e-12 8.41711e-13 -0.548019 -0.739413 8.41711e-13 7.30062e-13 -0.739413 -0.894024 7.30062e-13 6.87634e-13 -0.894024 -1.01119 6.87634e-13 6.43551e-13 -1.01119 -1.06839 6.43551e-13 5.78821e-13 -1.06839 -1.05 1.79779e-12 -2.33852e-11 -1.08555 -1.23367 -2.33852e-11 2.41384e-10 -1.23367 -1.30118 2.41384e-10 2.08066e-10 -1.30118 -1.19427 2.08066e-10 2.76064e-10 -1.19427 -1.28216 2.76064e-10 3.23969e-10 -1.28216 -1.42266 3.23969e-10 5.63716e-10 -1.42266 -1.5432 5.63716e-10 7.73345e-10 -1.5432 -1.58301 7.73345e-10 2.42825e-10 -1.58301 -1.5238 2.42825e-10 -5.10186e-10 -1.5238 -1.74738 -5.10186e-10 -3.68196e-10 -1.74738 -1.3562 -3.68196e-10 -2.30512e-10 -1.3562 -0.9299 -2.30512e-10 8.56585e-12 -0.9299 -1.29724 8.56585e-12 4.50295e-12 -1.29724 -1.57099 3.11436e-12 2.62201e-12 -1.98139 -2.19243 2.62201e-12 2.40466e-12 -2.19243 -2.41026 2.40466e-12 2.37298e-12 -2.41026 -2.42008 0 0.0115797 0 0.0275381 0.0115797 0.0326358 0.0275381 0.0649527 0.0326358 0.0702472 0.0649527 0.100663 0.0702472 0.10435 0.100663 0.223075 0.10435 0.149028 0.223075 0.24976 0.149028 0.333003 0.24976 0.285858 0.333003 0.459138 0.285858 0.645191 0.459138 0.926714 0.645191 0.936679 0.926714 2.47495 0.936679 -0.295863 2.47495 0.329466 -0.295863 0.239743 0.329466 0.87997 0.239743 -0.0846898 -0.302502 -0.548019 -1.00253 -1.27801 -0.548019 -0.739413 -1.27801 -1.56114 -0.739413 -0.894024 -1.56114 -1.83655 -0.894024 -1.01119 -1.83655 -2.07462 -1.01119 -1.06839 -2.07462 -2.2833 -1.06839 -1.05 -2.2833 -2.44387 -1.05 -1.03888 -2.44387 -2.48567 -1.23367 -1.30118 -2.42677 -1.43022 -1.30118 -1.19427 -1.43022 -2.27105 -1.19427 -1.28216 -2.27105 -2.60838 -1.28216 -1.42266 -2.60838 -2.81405 -1.42266 -1.5432 -2.81405 -3.01968 -1.5432 -1.58301 -3.01968 -3.32815 -1.58301 -1.5238 -3.32815 -4.143 -1.5238 -1.74738 -4.143 -2.02153 -1.74738 -1.3562 -2.02153 -2.72104 -1.3562 -0.9299 -2.72104 -2.96256 -1.77842 -1.98139 -3.8331 -4.09291 -1.98139 -2.19243 -4.09291 -4.35239 -2.19243 -2.41026 -4.35239 -4.62336 0 0.0275381 0 0.0161897 0.0275381 0.0649527 0.0161897 0.130374 0.0649527 0.100663 0.130374 0.145444 0.100663 0.223075 0.145444 0.126675 0.223075 0.24976 0.126675 0.355864 0.24976 0.285858 0.355864 0.867402 0.285858 0.645191 0.867402 0.4375 0.645191 0.936679 0.4375 0.303727 -0.402452 -0.738826 -1.11941 -1.45105 -0.738826 -1.00253 -1.45105 -1.77617 -1.00253 -1.27801 -1.77617 -2.09948 -1.27801 -1.56114 -2.09948 -2.42605 -1.56114 -1.83655 -2.42605 -2.79712 -2.42677 -1.43022 -4.24284 -4.46646 -1.43022 -2.27105 -4.46646 -4.05888 -2.27105 -2.60838 -4.05888 -3.98982 -2.60838 -2.81405 -3.98982 -4.15408 -2.81405 -3.01968 -4.15408 -4.18901 -3.01968 -3.32815 -4.18901 -4.37391 -3.32815 -4.143 -4.37391 -3.91203 -4.143 -2.02153 -3.91203 -4.59373 -3.33235 -3.59561 -5.32704 -5.62604 -3.59561 -3.8331 -5.62604 -5.90681 -3.8331 -4.09291 -5.90681 -6.22059 0 0.0161897 0 0.0612193 0.0161897 0.130374 0.0612193 0.0687202 0.130374 0.145444 0.0687202 0.199682 0.145444 0.126675 0.199682 0.696521 0.126675 0.355864 0.696521 0.336157 0.355864 0.867402 0.336157 0.121842 -0.414589 -0.799751 -1.15563 -1.50213 -0.799751 -1.11941 -1.50213 -1.85175 -1.11941 -1.45105 -1.85175 -2.18923 -1.45105 -1.77617 -2.18923 -2.57506 -3.52826 -4.13673 -5.13549 -5.88311 -4.18035 -4.19804 -5.79074 -5.82212 -4.46646 -4.05888 -5.74991 -5.47293 -4.05888 -3.98982 -5.47293 -5.64187 -3.98982 -4.15408 -5.64187 -5.52097 -4.15408 -4.18901 -5.52097 -5.50561 -4.18901 -4.37391 -5.50561 -5.87207 -4.37391 -3.91203 -5.87207 -6.16137 -5.02874 -5.32704 -7.06615 -7.37075 -5.32704 -5.62604 -7.37075 -7.68077 -6.73135 -6.22788 -8.87564 -10.819 0 0.0612193 0 0.225573 0.0612193 0.0687202 0.225573 0.765665 0.0687202 0.199682 0.765665 0.177388 0.199682 0.696521 0.177388 -0.0265641 -0.500958 -0.836942 -1.26595 -1.58879 -0.836942 -1.15563 -1.58879 -1.91602 -1.15563 -1.50213 -1.91602 -2.22247 -1.50213 -1.85175 -2.22247 -2.5591 -3.6723 -4.23292 -4.88517 -3.78293 -4.23292 -5.13549 -3.78293 -3.70409 -5.13549 -5.88311 -3.70409 -7.28429 -5.74991 -5.47293 -7.54442 -7.43801 -5.47293 -5.64187 -7.43801 -6.47745 -5.64187 -5.52097 -6.47745 -7.46427 -5.52097 -5.50561 -7.46427 -7.5529 -6.47812 -6.79119 -8.47906 -8.78172 -6.79119 -7.06615 -8.78172 -9.05797 -7.06615 -7.37075 -9.05797 -9.34899 -8.33748 -8.56885 -10.4321 -9.87504 -8.56885 -8.87564 -9.87504 -10.5752 -8.87564 -10.819 -10.5752 -10.3762 0 0.225573 0 0.211341 0.225573 0.765665 0.211341 -0.0533053 -0.63728 -0.961413 -1.40301 -1.71717 -0.961413 -1.26595 -1.71717 -2.0313 -1.26595 -1.58879 -2.0313 -2.34321 -1.58879 -1.91602 -2.34321 -2.65466 -3.33916 -3.86701 -4.43638 -3.60932 -3.86701 -2.66665 -3.60932 -7.95159 -2.66665 -4.88517 -7.95159 -6.50673 -4.88517 -3.78293 -6.50673 -6.96771 -3.78293 -3.70409 -6.96771 -8.39422 -3.70409 -7.28429 -8.39422 -9.99346 -7.28429 -7.43926 -9.99346 -9.18123 -7.50069 -7.50778 -9.05638 -9.0813 -7.43801 -6.47745 -8.82057 -8.91087 -7.8843 -8.19547 -9.88039 -10.1808 -8.19547 -8.47906 -10.1808 -10.4603 -8.47906 -8.78172 -10.4603 -10.789 -9.73148 -9.96953 -11.7079 -11.3086 -9.96953 -10.4321 -11.3086 -11.555 -10.4321 -9.87504 -11.555 -11.958 -9.87504 -10.5752 -11.958 -12.0455 -10.5752 -10.3762 -12.0455 -11.9824 -0.72799 -1.08686 -1.43598 -1.84663 -1.08686 -1.40301 -1.84663 -2.22158 -1.40301 -1.71717 -2.22158 -2.53865 -1.71717 -2.0313 -2.53865 -2.7767 -2.0313 -2.34321 -2.7767 -3.08535 -3.2639 -3.48783 -3.36227 -4.02512 -3.48783 -4.43638 -4.02512 -4.99897 -4.43638 -3.60932 -4.99897 -6.36346 -3.60932 -7.95159 -6.36346 -6.73532 -7.95159 -6.50673 -6.73532 -7.85597 -6.50673 -6.96771 -7.85597 -8.4567 -6.96771 -8.39422 -8.4567 -9.11008 -8.39422 -9.99346 -9.11008 -9.89437 -9.99346 -9.18123 -9.89437 -11.3373 -9.0813 -9.02315 -10.7269 -10.7373 -9.58303 -9.88039 -11.6172 -11.918 -9.88039 -10.1808 -11.918 -12.209 -11.1274 -11.3791 -13.4208 -13.0107 -11.3791 -11.7079 -13.0107 -13.2268 -11.7079 -11.3086 -13.2268 -13.4196 -11.3086 -11.555 -13.4196 -13.6156 -11.555 -11.958 -13.6156 -13.7167 -11.958 -12.0455 -13.7167 -13.8018 -12.0455 -11.9824 -13.8018 -13.7811 -0.598998 -1.02311 -1.09368 -1.65817 -1.02311 -1.43598 -1.65817 -2.19569 -1.43598 -1.84663 -2.19569 -2.69186 -1.84663 -2.22158 -2.69186 -3.1414 -2.22158 -2.53865 -3.1414 -3.53253 -2.53865 -2.7767 -3.53253 -3.86035 -10.7269 -10.7373 -12.2839 -12.5557 -10.7373 -10.7872 -12.5557 -12.8408 -11.0402 -11.3353 -13.11 -13.378 -11.3353 -11.6172 -13.378 -13.6222 -11.6172 -11.918 -13.6222 -13.9311 -12.6621 -13.4208 -15.1925 -12.826 -13.4208 -13.0107 -12.826 -14.2874 -13.0107 -13.2268 -14.2874 -14.9138 -13.2268 -13.4196 -14.9138 -15.2849 -13.4196 -13.6156 -15.2849 -15.5476 -13.6156 -13.7167 -15.5476 -15.6762 -13.7167 -13.8018 -15.6762 -15.7151 -13.8018 -13.7811 -15.7151 -15.721 0 -0.528904 0 -0.795919 -0.528904 -1.09368 -0.795919 -1.63711 -1.09368 -1.65817 -1.63711 -2.38164 -1.65817 -2.19569 -2.38164 -3.04212 -2.19569 -2.69186 -3.04212 -3.63655 -2.69186 -3.1414 -3.63655 -4.17896 -3.1414 -3.53253 -4.17896 -4.6861 -3.53253 -3.86035 -4.6861 -5.18876 -3.86035 -4.23821 -5.18876 -5.69237 -11.9616 -12.2839 -13.3383 -13.8686 -12.2839 -12.5557 -13.8686 -14.3459 -12.5557 -12.8408 -14.3459 -14.7435 -12.8408 -13.11 -14.7435 -15.066 -13.11 -13.378 -15.066 -15.3883 -14.2836 -14.5022 -16.2884 -15.856 -14.5022 -15.1925 -15.856 -15.9693 -15.1925 -12.826 -15.9693 -16.6539 -12.826 -14.2874 -16.6539 -16.8626 -14.2874 -14.9138 -16.8626 -17.1588 -14.9138 -15.2849 -17.1588 -17.4437 -15.2849 -15.5476 -17.4437 -17.6332 -15.5476 -15.6762 -17.6332 -17.7368 -15.6762 -15.7151 -17.7368 -17.774 -15.7151 -15.721 -17.774 -17.7808 0 -0.795919 0 -1.3771 -0.795919 -1.63711 -1.3771 -2.42385 -1.63711 -2.38164 -2.42385 -3.29482 -2.38164 -3.04212 -3.29482 -4.04035 -3.04212 -3.63655 -4.04035 -4.69481 -3.63655 -4.17896 -4.69481 -5.29652 -4.17896 -4.6861 -5.29652 -5.88816 -4.6861 -5.18876 -5.88816 -6.49996 -5.18876 -5.69237 -6.49996 -7.1474 -5.69237 -6.21027 -7.1474 -7.81712 -6.21027 -6.74197 -7.81712 -8.47938 -6.74197 -7.30409 -8.47938 -9.09555 -7.30409 -7.893 -9.09555 -9.66055 -7.893 -8.50434 -9.66055 -10.2009 -8.50434 -9.12136 -10.2009 -10.7443 -9.12136 -9.73722 -10.7443 -11.2956 -9.73722 -10.3522 -11.2956 -11.8546 -10.3522 -10.9663 -11.8546 -12.421 -10.9663 -11.5802 -12.421 -12.9946 -11.5802 -12.1927 -12.9946 -13.5751 -12.1927 -12.7862 -13.5751 -14.1796 -12.7862 -13.3383 -14.1796 -14.8539 -13.3383 -13.8686 -14.8539 -15.5858 -13.8686 -14.3459 -15.5858 -16.2803 -14.3459 -14.7435 -16.2803 -16.8007 -14.7435 -15.066 -16.8007 -17.0816 -15.7076 -15.8642 -18.0011 -17.7591 -15.8642 -16.2884 -17.7591 -17.5495 -16.2884 -15.856 -17.5495 -18.2039 -15.856 -15.9693 -18.2039 -18.7429 -15.9693 -16.6539 -18.7429 -19.1163 -16.6539 -16.8626 -19.1163 -19.5943 -16.8626 -17.1588 -19.5943 -19.7267 -17.1588 -17.4437 -19.7267 -19.8052 -17.4437 -17.6332 -19.8052 -19.8825 -17.6332 -17.7368 -19.8825 -19.9179 -17.7368 -17.774 -19.9179 -19.915 -17.774 -17.7808 -19.915 -19.9087 17.0816 17.1498 16.0738 16.1688 17.1498 17.1651 16.1688 16.2572 16.0738 16.1688 15.066 15.2272 16.1688 16.2572 15.2272 15.3883 17.1651 16.6006 16.2572 16.6188 16.6006 18.0011 16.6188 16.8544 16.2572 16.6188 15.3883 15.6033 16.6188 16.8544 15.6033 15.7076 5.69237 5.95132 4.96529 5.18018 5.95132 6.21027 5.18018 5.39706 4.96529 5.18018 4.23821 4.40624 5.18018 5.39706 4.40624 4.56915 6.21027 6.47612 5.39706 5.62038 6.47612 6.74197 5.62038 5.85955 5.39706 5.62038 4.56915 4.7386 5.62038 5.85955 4.7386 4.94787 6.74197 7.02303 5.85955 6.11116 7.02303 7.30409 6.11116 6.38739 5.85955 6.11116 4.94787 5.15806 6.11116 6.38739 5.15806 5.38395 7.30409 7.59854 6.38739 6.68495 7.59854 7.893 6.68495 7.00286 6.38739 6.68495 5.38395 5.71924 6.68495 7.00286 5.71924 6.101 7.893 8.19867 7.00286 7.32882 8.19867 8.50434 7.32882 7.65687 7.00286 7.32882 6.101 6.46276 7.32882 7.65687 6.46276 6.81114 8.50434 8.81285 7.65687 7.98374 8.81285 9.12136 7.98374 8.30939 7.65687 7.98374 6.81114 7.15621 7.98374 8.30939 7.15621 7.4992 9.12136 9.42929 8.30939 8.63403 9.42929 9.73722 8.63403 8.95726 8.30939 8.63403 7.4992 7.84014 8.63403 8.95726 7.84014 8.17904 9.73722 10.0447 8.95726 9.27946 10.0447 10.3522 9.27946 9.60024 8.95726 9.27946 8.17904 8.51562 9.27946 9.60024 8.51562 8.85003 10.3522 10.6592 9.60024 9.91997 10.6592 10.9663 9.91997 10.2383 9.60024 9.91997 8.85003 9.18212 9.91997 10.2383 9.18212 9.51198 10.9663 11.2733 10.2383 10.5556 11.2733 11.5802 10.5556 10.8714 10.2383 10.5556 9.51198 9.83937 10.5556 10.8714 9.83937 10.1643 11.5802 11.8864 10.8714 11.1862 11.8864 12.1927 11.1862 11.4992 10.8714 11.1862 10.1643 10.4863 11.1862 11.4992 10.4863 10.8068 12.1927 12.4895 11.4992 11.8103 12.4895 12.7862 11.8103 12.1064 11.4992 11.8103 10.8068 11.1328 11.8103 12.1064 11.1328 11.4955 12.7862 13.0623 12.1064 12.3888 13.0623 13.3383 12.3888 12.65 12.1064 12.3888 11.