# vtk DataFile Version 3.0
#This file was generated by the deal.II library on 2015/9/2 at 7:54:12
ASCII
DATASET UNSTRUCTURED_GRID

POINTS 41912 double
0 0 0
0.05 0 0
0 0.05 0
0.05 0.05 0
0.05 0 0
0.1 0 0
0.05 0.05 0
0.1 0.05 0
0.1 0 0
0.15 0 0
0.1 0.05 0
0.15 0.05 0
0.15 0 0
0.2 0 0
0.15 0.05 0
0.2 0.05 0
0.2 0 0
0.25 0 0
0.2 0.05 0
0.25 0.05 0
0.25 0 0
0.3 0 0
0.25 0.05 0
0.3 0.05 0
0.3 0 0
0.35 0 0
0.3 0.05 0
0.35 0.05 0
0.35 0 0
0.4 0 0
0.35 0.05 0
0.4 0.05 0
0.4 0 0
0.45 0 0
0.4 0.05 0
0.45 0.05 0
0.45 0 0
0.5 0 0
0.45 0.05 0
0.5 0.05 0
0.5 0 0
0.55 0 0
0.5 0.05 0
0.55 0.05 0
0.55 0 0
0.6 0 0
0.55 0.05 0
0.6 0.05 0
0.6 0 0
0.65 0 0
0.6 0.05 0
0.65 0.05 0
0.65 0 0
0.7 0 0
0.65 0.05 0
0.7 0.05 0
0.7 0 0
0.75 0 0
0.7 0.05 0
0.75 0.05 0
0.75 0 0
0.8 0 0
0.75 0.05 0
0.8 0.05 0
0.8 0 0
0.85 0 0
0.8 0.05 0
0.85 0.05 0
0.85 0 0
0.9 0 0
0.85 0.05 0
0.9 0.05 0
0.9 0 0
0.95 0 0
0.9 0.05 0
0.95 0.05 0
0.95 0 0
1 0 0
0.95 0.05 0
1 0.05 0
1 0 0
1.05 0 0
1 0.05 0
1.05 0.05 0
1.05 0 0
1.1 0 0
1.05 0.05 0
1.1 0.05 0
1.1 0 0
1.15 0 0
1.1 0.05 0
1.15 0.05 0
1.15 0 0
1.2 0 0
1.15 0.05 0
1.2 0.05 0
1.2 0 0
1.25 0 0
1.2 0.05 0
1.25 0.05 0
1.45 0 0
1.5 0 0
1.45 0.05 0
1.5 0.05 0
1.5 0 0
1.55 0 0
1.5 0.05 0
1.55 0.05 0
1.55 0 0
1.6 0 0
1.55 0.05 0
1.6 0.05 0
1.6 0 0
1.65 0 0
1.6 0.05 0
1.65 0.05 0
1.65 0 0
1.7 0 0
1.65 0.05 0
1.7 0.05 0
1.7 0 0
1.75 0 0
1.7 0.05 0
1.75 0.05 0
1.75 0 0
1.8 0 0
1.75 0.05 0
1.8 0.05 0
1.8 0 0
1.85 0 0
1.8 0.05 0
1.85 0.05 0
1.85 0 0
1.9 0 0
1.85 0.05 0
1.9 0.05 0
1.9 0 0
1.95 0 0
1.9 0.05 0
1.95 0.05 0
1.95 0 0
2 0 0
1.95 0.05 0
2 0.05 0
0 0.05 0
0.05 0.05 0
0 0.1 0
0.05 0.1 0
0.05 0.05 0
0.1 0.05 0
0.05 0.1 0
0.1 0.1 0
0.1 0.05 0
0.15 0.05 0
0.1 0.1 0
0.15 0.1 0
0.15 0.05 0
0.2 0.05 0
0.15 0.1 0
0.2 0.1 0
0.2 0.05 0
0.25 0.05 0
0.2 0.1 0
0.25 0.1 0
0.25 0.05 0
0.3 0.05 0
0.25 0.1 0
0.3 0.1 0
0.3 0.05 0
0.35 0.05 0
0.3 0.1 0
0.35 0.1 0
1.15 0.05 0
1.2 0.05 0
1.15 0.1 0
1.2 0.1 0
1.2 0.05 0
1.25 0.05 0
1.2 0.1 0
1.25 0.1 0
1.55 0.05 0
1.6 0.05 0
1.55 0.1 0
1.6 0.1 0
1.6 0.05 0
1.65 0.05 0
1.6 0.1 0
1.65 0.1 0
1.65 0.05 0
1.7 0.05 0
1.65 0.1 0
1.7 0.1 0
1.7 0.05 0
1.75 0.05 0
1.7 0.1 0
1.75 0.1 0
1.75 0.05 0
1.8 0.05 0
1.75 0.1 0
1.8 0.1 0
1.8 0.05 0
1.85 0.05 0
1.8 0.1 0
1.85 0.1 0
1.85 0.05 0
1.9 0.05 0
1.85 0.1 0
1.9 0.1 0
1.9 0.05 0
1.95 0.05 0
1.9 0.1 0
1.95 0.1 0
1.95 0.05 0
2 0.05 0
1.95 0.1 0
2 0.1 0
0.15 0.1 0
0.2 0.1 0
0.15 0.15 0
0.2 0.15 0
0.2 0.1 0
0.25 0.1 0
0.2 0.15 0
0.25 0.15 0
0.25 0.1 0
0.3 0.1 0
0.25 0.15 0
0.3 0.15 0
0.3 0.1 0
0.35 0.1 0
0.3 0.15 0
0.35 0.15 0
1.65 0.1 0
1.7 0.1 0
1.65 0.15 0
1.7 0.15 0
1.7 0.1 0
1.75 0.1 0
1.7 0.15 0
1.75 0.15 0
1.75 0.1 0
1.8 0.1 0
1.75 0.15 0
1.8 0.15 0
1.8 0.1 0
1.85 0.1 0
1.8 0.15 0
1.85 0.15 0
1.85 0.1 0
1.9 0.1 0
1.85 0.15 0
1.9 0.15 0
1.9 0.1 0
1.95 0.1 0
1.9 0.15 0
1.95 0.15 0
1.95 0.1 0
2 0.1 0
1.95 0.15 0
2 0.15 0
0.3 0.15 0
0.35 0.15 0
0.3 0.2 0
0.35 0.2 0
1.75 0.15 0
1.8 0.15 0
1.75 0.2 0
1.8 0.2 0
1.8 0.15 0
1.85 0.15 0
1.8 0.2 0
1.85 0.2 0
1.85 0.15 0
1.9 0.15 0
1.85 0.2 0
1.9 0.2 0
1.9 0.15 0
1.95 0.15 0
1.9 0.2 0
1.95 0.2 0
1.95 0.15 0
2 0.15 0
1.95 0.2 0
2 0.2 0
0.4 0.2 0
0.45 0.2 0
0.4 0.25 0
0.45 0.25 0
0.8 0.2 0
0.85 0.2 0
0.8 0.25 0
0.85 0.25 0
0.85 0.2 0
0.9 0.2 0
0.85 0.25 0
0.9 0.25 0
0.9 0.2 0
0.95 0.2 0
0.9 0.25 0
0.95 0.25 0
0.95 0.2 0
1 0.2 0
0.95 0.25 0
1 0.25 0
1.8 0.2 0
1.85 0.2 0
1.8 0.25 0
1.85 0.25 0
1.85 0.2 0
1.9 0.2 0
1.85 0.25 0
1.9 0.25 0
1.9 0.2 0
1.95 0.2 0
1.9 0.25 0
1.95 0.25 0
1.95 0.2 0
2 0.2 0
1.95 0.25 0
2 0.25 0
0 0.25 0
0.05 0.25 0
0 0.3 0
0.05 0.3 0
0.05 0.25 0
0.1 0.25 0
0.05 0.3 0
0.1 0.3 0
0.1 0.25 0
0.15 0.25 0
0.1 0.3 0
0.15 0.3 0
0.95 0.25 0
1 0.25 0
0.95 0.3 0
1 0.3 0
1.25 0.25 0
1.3 0.25 0
1.25 0.3 0
1.3 0.3 0
1.3 0.25 0
1.35 0.25 0
1.3 0.3 0
1.35 0.3 0
1.9 0.25 0
1.95 0.25 0
1.9 0.3 0
1.95 0.3 0
1.95 0.25 0
2 0.25 0
1.95 0.3 0
2 0.3 0
0 0.3 0
0.05 0.3 0
0 0.35 0
0.05 0.35 0
0.05 0.3 0
0.1 0.3 0
0.05 0.35 0
0.1 0.35 0
0.1 0.3 0
0.15 0.3 0
0.1 0.35 0
0.15 0.35 0
0.15 0.3 0
0.2 0.3 0
0.15 0.35 0
0.2 0.35 0
0.2 0.3 0
0.25 0.3 0
0.2 0.35 0
0.25 0.35 0
0.6 0.3 0
0.65 0.3 0
0.6 0.35 0
0.65 0.35 0
1.2 0.3 0
1.25 0.3 0
1.2 0.35 0
1.25 0.35 0
1.25 0.3 0
1.3 0.3 0
1.25 0.35 0
1.3 0.35 0
1.3 0.3 0
1.35 0.3 0
1.3 0.35 0
1.35 0.35 0
1.35 0.3 0
1.4 0.3 0
1.35 0.35 0
1.4 0.35 0
0 0.35 0
0.05 0.35 0
0 0.4 0
0.05 0.4 0
0.05 0.35 0
0.1 0.35 0
0.05 0.4 0
0.1 0.4 0
0.1 0.35 0
0.15 0.35 0
0.1 0.4 0
0.15 0.4 0
0.15 0.35 0
0.2 0.35 0
0.15 0.4 0
0.2 0.4 0
0.2 0.35 0
0.25 0.35 0
0.2 0.4 0
0.25 0.4 0
0.25 0.35 0
0.3 0.35 0
0.25 0.4 0
0.3 0.4 0
0.3 0.35 0
0.35 0.35 0
0.3 0.4 0
0.35 0.4 0
0.7 0.35 0
0.75 0.35 0
0.7 0.4 0
0.75 0.4 0
1.2 0.35 0
1.25 0.35 0
1.2 0.4 0
1.25 0.4 0
1.25 0.35 0
1.3 0.35 0
1.25 0.4 0
1.3 0.4 0
1.3 0.35 0
1.35 0.35 0
1.3 0.4 0
1.35 0.4 0
1.35 0.35 0
1.4 0.35 0
1.35 0.4 0
1.4 0.4 0
1.4 0.35 0
1.45 0.35 0
1.4 0.4 0
1.45 0.4 0
1.45 0.35 0
1.5 0.35 0
1.45 0.4 0
1.5 0.4 0
0 0.4 0
0.05 0.4 0
0 0.45 0
0.05 0.45 0
0.05 0.4 0
0.1 0.4 0
0.05 0.45 0
0.1 0.45 0
0.1 0.4 0
0.15 0.4 0
0.1 0.45 0
0.15 0.45 0
0.15 0.4 0
0.2 0.4 0
0.15 0.45 0
0.2 0.45 0
0.2 0.4 0
0.25 0.4 0
0.2 0.45 0
0.25 0.45 0
0.25 0.4 0
0.3 0.4 0
0.25 0.45 0
0.3 0.45 0
0.3 0.4 0
0.35 0.4 0
0.3 0.45 0
0.35 0.45 0
0.35 0.4 0
0.4 0.4 0
0.35 0.45 0
0.4 0.45 0
0.4 0.4 0
0.45 0.4 0
0.4 0.45 0
0.45 0.45 0
0.75 0.4 0
0.8 0.4 0
0.75 0.45 0
0.8 0.45 0
0.8 0.4 0
0.85 0.4 0
0.8 0.45 0
0.85 0.45 0
0.85 0.4 0
0.9 0.4 0
0.85 0.45 0
0.9 0.45 0
1.15 0.4 0
1.2 0.4 0
1.15 0.45 0
1.2 0.45 0
1.2 0.4 0
1.25 0.4 0
1.2 0.45 0
1.25 0.45 0
1.25 0.4 0
1.3 0.4 0
1.25 0.45 0
1.3 0.45 0
1.3 0.4 0
1.35 0.4 0
1.3 0.45 0
1.35 0.45 0
1.35 0.4 0
1.4 0.4 0
1.35 0.45 0
1.4 0.45 0
1.4 0.4 0
1.45 0.4 0
1.4 0.45 0
1.45 0.45 0
1.45 0.4 0
1.5 0.4 0
1.45 0.45 0
1.5 0.45 0
1.5 0.4 0
1.55 0.4 0
1.5 0.45 0
1.55 0.45 0
1.55 0.4 0
1.6 0.4 0
1.55 0.45 0
1.6 0.45 0
0 0.45 0
0.05 0.45 0
0 0.5 0
0.05 0.5 0
0.05 0.45 0
0.1 0.45 0
0.05 0.5 0
0.1 0.5 0
0.1 0.45 0
0.15 0.45 0
0.1 0.5 0
0.15 0.5 0
0.15 0.45 0
0.2 0.45 0
0.15 0.5 0
0.2 0.5 0
0.2 0.45 0
0.25 0.45 0
0.2 0.5 0
0.25 0.5 0
0.25 0.45 0
0.3 0.45 0
0.25 0.5 0
0.3 0.5 0
0.3 0.45 0
0.35 0.45 0
0.3 0.5 0
0.35 0.5 0
0.35 0.45 0
0.4 0.45 0
0.35 0.5 0
0.4 0.5 0
0.4 0.45 0
0.45 0.45 0
0.4 0.5 0
0.45 0.5 0
0.45 0.45 0
0.5 0.45 0
0.45 0.5 0
0.5 0.5 0
0.5 0.45 0
0.55 0.45 0
0.5 0.5 0
0.55 0.5 0
0.8 0.45 0
0.85 0.45 0
0.8 0.5 0
0.85 0.5 0
0.85 0.45 0
0.9 0.45 0
0.85 0.5 0
0.9 0.5 0
0.9 0.45 0
0.95 0.45 0
0.9 0.5 0
0.95 0.5 0
0.95 0.45 0
1 0.45 0
0.95 0.5 0
1 0.5 0
1.15 0.45 0
1.2 0.45 0
1.15 0.5 0
1.2 0.5 0
1.2 0.45 0
1.25 0.45 0
1.2 0.5 0
1.25 0.5 0
1.25 0.45 0
1.3 0.45 0
1.25 0.5 0
1.3 0.5 0
1.3 0.45 0
1.35 0.45 0
1.3 0.5 0
1.35 0.5 0
1.35 0.45 0
1.4 0.45 0
1.35 0.5 0
1.4 0.5 0
1.4 0.45 0
1.45 0.45 0
1.4 0.5 0
1.45 0.5 0
1.45 0.45 0
1.5 0.45 0
1.45 0.5 0
1.5 0.5 0
1.5 0.45 0
1.55 0.45 0
1.5 0.5 0
1.55 0.5 0
1.55 0.45 0
1.6 0.45 0
1.55 0.5 0
1.6 0.5 0
1.6 0.45 0
1.65 0.45 0
1.6 0.5 0
1.65 0.5 0
1.9 0.45 0
1.95 0.45 0
1.9 0.5 0
1.95 0.5 0
0 0.5 0
0.05 0.5 0
0 0.55 0
0.05 0.55 0
0.05 0.5 0
0.1 0.5 0
0.05 0.55 0
0.1 0.55 0
0.1 0.5 0
0.15 0.5 0
0.1 0.55 0
0.15 0.55 0
0.15 0.5 0
0.2 0.5 0
0.15 0.55 0
0.2 0.55 0
0.2 0.5 0
0.25 0.5 0
0.2 0.55 0
0.25 0.55 0
0.25 0.5 0
0.3 0.5 0
0.25 0.55 0
0.3 0.55 0
0.3 0.5 0
0.35 0.5 0
0.3 0.55 0
0.35 0.55 0
0.35 0.5 0
0.4 0.5 0
0.35 0.55 0
0.4 0.55 0
0.4 0.5 0
0.45 0.5 0
0.4 0.55 0
0.45 0.55 0
0.45 0.5 0
0.5 0.5 0
0.45 0.55 0
0.5 0.55 0
0.5 0.5 0
0.55 0.5 0
0.5 0.55 0
0.55 0.55 0
0.8 0.5 0
0.85 0.5 0
0.8 0.55 0
0.85 0.55 0
0.85 0.5 0
0.9 0.5 0
0.85 0.55 0
0.9 0.55 0
0.9 0.5 0
0.95 0.5 0
0.9 0.55 0
0.95 0.55 0
0.95 0.5 0
1 0.5 0
0.95 0.55 0
1 0.55 0
1.15 0.5 0
1.2 0.5 0
1.15 0.55 0
1.2 0.55 0
1.2 0.5 0
1.25 0.5 0
1.2 0.55 0
1.25 0.55 0
1.25 0.5 0
1.3 0.5 0
1.25 0.55 0
1.3 0.55 0
1.3 0.5 0
1.35 0.5 0
1.3 0.55 0
1.35 0.55 0
1.35 0.5 0
1.4 0.5 0
1.35 0.55 0
1.4 0.55 0
1.4 0.5 0
1.45 0.5 0
1.4 0.55 0
1.45 0.55 0
1.45 0.5 0
1.5 0.5 0
1.45 0.55 0
1.5 0.55 0
1.5 0.5 0
1.55 0.5 0
1.5 0.55 0
1.55 0.55 0
1.55 0.5 0
1.6 0.5 0
1.55 0.55 0
1.6 0.55 0
1.6 0.5 0
1.65 0.5 0
1.6 0.55 0
1.65 0.55 0
1.9 0.5 0
1.95 0.5 0
1.9 0.55 0
1.95 0.55 0
0 0.55 0
0.05 0.55 0
0 0.6 0
0.05 0.6 0
0.05 0.55 0
0.1 0.55 0
0.05 0.6 0
0.1 0.6 0
0.1 0.55 0
0.15 0.55 0
0.1 0.6 0
0.15 0.6 0
0.15 0.55 0
0.2 0.55 0
0.15 0.6 0
0.2 0.6 0
0.2 0.55 0
0.25 0.55 0
0.2 0.6 0
0.25 0.6 0
0.25 0.55 0
0.3 0.55 0
0.25 0.6 0
0.3 0.6 0
0.3 0.55 0
0.35 0.55 0
0.3 0.6 0
0.35 0.6 0
0.35 0.55 0
0.4 0.55 0
0.35 0.6 0
0.4 0.6 0
0.4 0.55 0
0.45 0.55 0
0.4 0.6 0
0.45 0.6 0
0.75 0.55 0
0.8 0.55 0
0.75 0.6 0
0.8 0.6 0
0.8 0.55 0
0.85 0.55 0
0.8 0.6 0
0.85 0.6 0
0.85 0.55 0
0.9 0.55 0
0.85 0.6 0
0.9 0.6 0
1.15 0.55 0
1.2 0.55 0
1.15 0.6 0
1.2 0.6 0
1.2 0.55 0
1.25 0.55 0
1.2 0.6 0
1.25 0.6 0
1.25 0.55 0
1.3 0.55 0
1.25 0.6 0
1.3 0.6 0
1.3 0.55 0
1.35 0.55 0
1.3 0.6 0
1.35 0.6 0
1.35 0.55 0
1.4 0.55 0
1.35 0.6 0
1.4 0.6 0
1.4 0.55 0
1.45 0.55 0
1.4 0.6 0
1.45 0.6 0
1.45 0.55 0
1.5 0.55 0
1.45 0.6 0
1.5 0.6 0
1.5 0.55 0
1.55 0.55 0
1.5 0.6 0
1.55 0.6 0
1.55 0.55 0
1.6 0.55 0
1.55 0.6 0
1.6 0.6 0
0 0.6 0
0.05 0.6 0
0 0.65 0
0.05 0.65 0
0.05 0.6 0
0.1 0.6 0
0.05 0.65 0
0.1 0.65 0
0.1 0.6 0
0.15 0.6 0
0.1 0.65 0
0.15 0.65 0
0.15 0.6 0
0.2 0.6 0
0.15 0.65 0
0.2 0.65 0
0.2 0.6 0
0.25 0.6 0
0.2 0.65 0
0.25 0.65 0
0.25 0.6 0
0.3 0.6 0
0.25 0.65 0
0.3 0.65 0
0.3 0.6 0
0.35 0.6 0
0.3 0.65 0
0.35 0.65 0
0.7 0.6 0
0.75 0.6 0
0.7 0.65 0
0.75 0.65 0
1.2 0.6 0
1.25 0.6 0
1.2 0.65 0
1.25 0.65 0
1.25 0.6 0
1.3 0.6 0
1.25 0.65 0
1.3 0.65 0
1.3 0.6 0
1.35 0.6 0
1.3 0.65 0
1.35 0.65 0
1.35 0.6 0
1.4 0.6 0
1.35 0.65 0
1.4 0.65 0
1.4 0.6 0
1.45 0.6 0
1.4 0.65 0
1.45 0.65 0
1.45 0.6 0
1.5 0.6 0
1.45 0.65 0
1.5 0.65 0
0 0.65 0
0.05 0.65 0
0 0.7 0
0.05 0.7 0
0.05 0.65 0
0.1 0.65 0
0.05 0.7 0
0.1 0.7 0
0.1 0.65 0
0.15 0.65 0
0.1 0.7 0
0.15 0.7 0
0.15 0.65 0
0.2 0.65 0
0.15 0.7 0
0.2 0.7 0
0.2 0.65 0
0.25 0.65 0
0.2 0.7 0
0.25 0.7 0
0.6 0.65 0
0.65 0.65 0
0.6 0.7 0
0.65 0.7 0
1.2 0.65 0
1.25 0.65 0
1.2 0.7 0
1.25 0.7 0
1.25 0.65 0
1.3 0.65 0
1.25 0.7 0
1.3 0.7 0
1.3 0.65 0
1.35 0.65 0
1.3 0.7 0
1.35 0.7 0
[...]
POINT_DATA 41912
SCALARS x_displacement double 1
LOOKUP_TABLE default
0 1.3236 0 0.775185 1.3236 2.33125 0.775185 1.59545 2.33125 3.17635 1.59545 2.3231 3.17635 3.90568 2.3231 2.97146 3.90568 4.54854 2.97146 3.55494 4.54854 5.13562 3.55494 4.08766 5.13562 5.69724 4.08766 4.58741 5.69724 6.25163 4.58741 5.07659 6.25163 6.80496 5.07659 5.55945 6.80496 7.35664 5.55945 6.04174 7.35664 7.90941 6.04174 6.52544 7.90941 8.46494 6.52544 7.00984 8.46494 9.01705 7.00984 7.49986 9.01705 9.54715 7.49986 7.99856 9.54715 10.0461 7.99856 8.50187 10.0461 10.5266 8.50187 9.01561 10.5266 11.0062 9.01561 9.53392 11.0062 11.4885 9.53392 10.0527 11.4885 11.9741 10.0527 10.5707 11.9741 12.4731 10.5707 11.0809 12.4731 13.0066 11.0809 11.5814 13.0066 13.5914 11.5814 12.0662 13.5914 14.2197 12.0662 12.5353 14.2197 14.828 12.5353 12.9885 14.828 15.3011 12.9885 13.3829 17.7099 17.7182 14.2254 17.4677 17.7182 18.7641 17.4677 16.3044 18.7641 18.8031 16.3044 16.3596 18.8031 18.8414 16.3596 16.5693 18.8414 18.9272 16.5693 16.7294 18.9272 18.9992 16.7294 16.8326 18.9992 19.0348 16.8326 16.8902 19.0348 19.0422 16.8902 16.9352 19.0422 19.0394 16.9352 16.9622 19.0394 19.0333 16.9622 16.9732 19.0333 19.0309 16.9732 16.9754 0 0.775185 0 0.532802 0.775185 1.59545 0.532802 1.09219 1.59545 2.3231 1.09219 1.65438 2.3231 2.97146 1.65438 2.18321 2.97146 3.55494 2.18321 2.67527 3.55494 4.08766 2.67527 3.12407 4.08766 4.58741 3.12407 3.52328 12.5353 12.9885 10.9507 11.2932 12.9885 13.3829 11.2932 11.6035 16.3044 16.3596 13.3963 14.0438 16.3596 16.5693 14.0438 14.4332 16.5693 16.7294 14.4332 14.6448 16.7294 16.8326 14.6448 14.7071 16.8326 16.8902 14.7071 14.7951 16.8902 16.9352 14.7951 14.872 16.9352 16.9622 14.872 14.923 16.9622 16.9732 14.923 14.935 16.9732 16.9754 14.935 14.9359 1.65438 2.18321 1.06505 1.48315 2.18321 2.67527 1.48315 1.89029 2.67527 3.12407 1.89029 2.26424 3.12407 3.52328 2.26424 2.58933 14.4332 14.6448 12.6944 12.4315 14.6448 14.7071 12.4315 12.6047 14.7071 14.7951 12.6047 12.752 14.7951 14.872 12.752 12.904 14.872 14.923 12.904 12.9346 14.923 14.935 12.9346 12.9371 14.935 14.9359 12.9371 12.9313 2.26424 2.58933 1.49349 1.81199 12.6047 12.752 10.6326 11.0387 12.752 12.904 11.0387 10.9631 12.904 12.9346 10.9631 10.9871 12.9346 12.9371 10.9871 10.9918 12.9371 12.9313 10.9918 10.9772 2.12399 2.42594 1.40537 1.71645 5.25664 5.93035 4.67159 4.87465 5.93035 6.42985 4.87465 5.51532 6.42985 6.9316 5.51532 5.87667 6.9316 7.29768 5.87667 6.22723 11.0387 10.9631 8.7102 8.92067 10.9631 10.9871 8.92067 9.07234 10.9871 10.9918 9.07234 9.12531 10.9918 10.9772 9.12531 9.1174 0 -0.502813 0 -0.379112 -0.502813 -2.50909 -0.379112 -0.293261 -2.50909 -0.0756901 -0.293261 -0.753351 5.87667 6.22723 4.7989 5.17513 5.85724 3.56031 5.00164 5.07505 3.56031 6.55003 5.07505 4.75785 9.07234 9.12531 7.2205 7.42909 9.12531 9.1174 7.42909 7.37998 0 -0.379112 0 -0.0451881 -0.379112 -0.293261 -0.0451881 -0.14831 -0.293261 -0.753351 -0.14831 -0.122736 -0.753351 -0.218918 -0.122736 -0.132166 -0.218918 0.153125 -0.132166 -0.021249 1.93381 2.24633 1.21476 1.50763 5.12599 5.00164 3.68851 3.91833 5.00164 5.07505 3.91833 3.79928 5.07505 4.75785 3.79928 3.68161 4.75785 5.00922 3.68161 3.41907 0 -0.0451881 0 -0.0145783 -0.0451881 -0.14831 -0.0145783 -0.0118573 -0.14831 -0.122736 -0.0118573 -0.0391632 -0.122736 -0.132166 -0.0391632 -0.0574568 -0.132166 -0.021249 -0.0574568 -0.0767007 -0.021249 0.105059 -0.0767007 -0.0839076 0.105059 0.202889 -0.0839076 -0.158844 1.79243 2.08537 1.03348 1.27868 3.68851 3.91833 2.61373 2.36302 3.91833 3.79928 2.36302 2.48114 3.79928 3.68161 2.48114 2.40413 3.68161 3.41907 2.40413 2.30069 3.41907 3.26919 2.30069 2.09656 3.26919 1.94878 2.09656 2.49797 0 -0.0145783 0 0.00197611 -0.0145783 -0.0118573 0.00197611 0.00165286 -0.0118573 -0.0391632 0.00165286 -0.00772552 -0.0391632 -0.0574568 -0.00772552 -0.0305982 -0.0574568 -0.0767007 -0.0305982 -0.0563376 -0.0767007 -0.0839076 -0.0563376 -0.0978217 -0.0839076 -0.158844 -0.0978217 -0.192282 -0.158844 -0.424644 -0.192282 -0.391456 -0.424644 -1.89343 -0.391456 -0.290695 1.27868 1.52971 0.540814 0.721394 1.52971 1.76792 0.721394 0.862052 1.76792 1.9785 0.862052 0.962455 2.28234 2.61373 1.28555 1.37786 2.61373 2.36302 1.37786 1.2591 2.36302 2.48114 1.2591 1.19669 2.48114 2.40413 1.19669 1.19162 2.40413 2.30069 1.19162 1.14633 2.30069 2.09656 1.14633 1.18363 2.09656 2.49797 1.18363 1.14154 2.49797 2.35833 1.14154 1.05915 2.35833 2.4519 1.05915 0.717274 0 0.00197611 0 -3.50768e-11 0.00197611 0.00165286 -3.50768e-11 -7.87761e-11 0.00165286 -0.00772552 -7.87761e-11 -1.15847e-10 -0.00772552 -0.0305982 -1.15847e-10 -1.41468e-10 -0.0305982 -0.0563376 -1.41468e-10 -1.54793e-10 -0.0563376 -0.0978217 -1.54793e-10 -1.55997e-10 -0.0978217 -0.192282 -1.55997e-10 -1.44821e-10 -0.192282 -0.391456 -1.44821e-10 -1.2659e-10 -0.391456 -0.290695 -1.2659e-10 -9.6506e-11 -0.290695 -0.574285 -9.6506e-11 -6.25113e-11 -0.574285 -1.1846 -6.25113e-11 -4.42604e-11 0.721394 0.862052 1.49111e-12 1.57669e-12 0.862052 0.962455 1.57669e-12 1.44014e-12 0.962455 1.00755 1.44014e-12 1.15102e-12 1.00755 0.989301 1.15102e-12 9.90101e-13 1.28555 1.37786 -1.2015e-10 2.32594e-10 1.37786 1.2591 2.32594e-10 -9.72867e-11 1.2591 1.19669 -9.72867e-11 3.82794e-10 1.19669 1.19162 3.82794e-10 -1.6277e-10 1.19162 1.14633 -1.6277e-10 4.81096e-10 1.14633 1.18363 4.81096e-10 1.76418e-09 1.18363 1.14154 1.76418e-09 1.53179e-09 1.14154 1.05915 1.53179e-09 -1.78835e-11 1.05915 0.717274 -1.78835e-11 -1.81994e-10 0.717274 0.999711 -1.81994e-10 -6.61752e-10 1.91856 2.1264 3.57346e-12 3.6652e-12 0 -3.50768e-11 0 -0.00197611 -3.50768e-11 -7.87761e-11 -0.00197611 -0.00165286 -7.87761e-11 -1.15847e-10 -0.00165286 0.00772552 -1.15847e-10 -1.41468e-10 0.00772552 0.0305982 -1.41468e-10 -1.54793e-10 0.0305982 0.0563376 -1.54793e-10 -1.55997e-10 0.0563376 0.0978217 -1.55997e-10 -1.44821e-10 0.0978217 0.192282 -1.44821e-10 -1.2659e-10 0.192282 0.391456 -1.2659e-10 -9.6506e-11 0.391456 0.290695 -9.6506e-11 -6.25113e-11 0.290695 0.574285 -6.25113e-11 -4.42604e-11 0.574285 1.1846 1.49111e-12 1.57669e-12 -0.721394 -0.862052 1.57669e-12 1.44014e-12 -0.862052 -0.962455 1.44014e-12 1.15102e-12 -0.962455 -1.00755 1.15102e-12 9.90101e-13 -1.00755 -0.989301 -1.2015e-10 2.32594e-10 -1.28555 -1.37786 2.32594e-10 -9.72867e-11 -1.37786 -1.2591 -9.72867e-11 3.82794e-10 -1.2591 -1.19669 3.82794e-10 -1.6277e-10 -1.19669 -1.19162 -1.6277e-10 4.81096e-10 -1.19162 -1.14633 4.81096e-10 1.76418e-09 -1.14633 -1.18363 1.76418e-09 1.53179e-09 -1.18363 -1.14154 1.53179e-09 -1.78835e-11 -1.14154 -1.05915 -1.78835e-11 -1.81994e-10 -1.05915 -0.717274 -1.81994e-10 -6.61752e-10 -0.717274 -0.999711 3.57346e-12 3.6652e-12 -1.91856 -2.1264 0 -0.00197611 0 0.0145783 -0.00197611 -0.00165286 0.0145783 0.0118573 -0.00165286 0.00772552 0.0118573 0.0391632 0.00772552 0.0305982 0.0391632 0.0574568 0.0305982 0.0563376 0.0574568 0.0767007 0.0563376 0.0978217 0.0767007 0.0839076 0.0978217 0.192282 0.0839076 0.158844 0.192282 0.391456 0.158844 0.424644 0.391456 0.290695 0.424644 1.89343 -0.540814 -0.721394 -1.27868 -1.52971 -0.721394 -0.862052 -1.52971 -1.76792 -0.862052 -0.962455 -1.76792 -1.9785 -1.28555 -1.37786 -2.28234 -2.61373 -1.37786 -1.2591 -2.61373 -2.36302 -1.2591 -1.19669 -2.36302 -2.48114 -1.19669 -1.19162 -2.48114 -2.40413 -1.19162 -1.14633 -2.40413 -2.30069 -1.14633 -1.18363 -2.30069 -2.09656 -1.18363 -1.14154 -2.09656 -2.49797 -1.14154 -1.05915 -2.49797 -2.35833 -1.05915 -0.717274 -2.35833 -2.4519 0 0.0145783 0 0.0451881 0.0145783 0.0118573 0.0451881 0.14831 0.0118573 0.0391632 0.14831 0.122736 0.0391632 0.0574568 0.122736 0.132166 0.0574568 0.0767007 0.132166 0.021249 0.0767007 0.0839076 0.021249 -0.105059 0.0839076 0.158844 -0.105059 -0.202889 -1.03348 -1.27868 -1.79243 -2.08537 -2.61373 -2.36302 -3.68851 -3.91833 -2.36302 -2.48114 -3.91833 -3.79928 -2.48114 -2.40413 -3.79928 -3.68161 -2.40413 -2.30069 -3.68161 -3.41907 -2.30069 -2.09656 -3.41907 -3.26919 -2.09656 -2.49797 -3.26919 -1.94878 0 0.0451881 0 0.379112 0.0451881 0.14831 0.379112 0.293261 0.14831 0.122736 0.293261 0.753351 0.122736 0.132166 0.753351 0.218918 0.132166 0.021249 0.218918 -0.153125 -1.21476 -1.50763 -1.93381 -2.24633 -3.68851 -3.91833 -5.12599 -5.00164 -3.91833 -3.79928 -5.00164 -5.07505 -3.79928 -3.68161 -5.07505 -4.75785 -3.68161 -3.41907 -4.75785 -5.00922 0 0.379112 0 0.502813 0.379112 0.293261 0.502813 2.50909 0.293261 0.753351 2.50909 0.0756901 -4.7989 -5.17513 -5.87667 -6.22723 -5.00164 -5.07505 -5.85724 -3.56031 -5.07505 -4.75785 -3.56031 -6.55003 -7.2205 -7.42909 -9.07234 -9.12531 -7.42909 -7.37998 -9.12531 -9.1174 -1.40537 -1.71645 -2.12399 -2.42594 -4.67159 -4.87465 -5.25664 -5.93035 -4.87465 -5.51532 -5.93035 -6.42985 -5.51532 -5.87667 -6.42985 -6.9316 -5.87667 -6.22723 -6.9316 -7.29768 -8.7102 -8.92067 -11.0387 -10.9631 -8.92067 -9.07234 -10.9631 -10.9871 -9.07234 -9.12531 -10.9871 -10.9918 -9.12531 -9.1174 -10.9918 -10.9772 -1.49349 -1.81199 -2.26424 -2.58933 -10.6326 -11.0387 -12.6047 -12.752 -11.0387 -10.9631 -12.752 -12.904 -10.9631 -10.9871 -12.904 -12.9346 -10.9871 -10.9918 -12.9346 -12.9371 -10.9918 -10.9772 -12.9371 -12.9313 -1.06505 -1.48315 -1.65438 -2.18321 -1.48315 -1.89029 -2.18321 -2.67527 -1.89029 -2.26424 -2.67527 -3.12407 -2.26424 -2.58933 -3.12407 -3.52328 -12.6944 -12.4315 -14.4332 -14.6448 -12.4315 -12.6047 -14.6448 -14.7071 -12.6047 -12.752 -14.7071 -14.7951 -12.752 -12.904 -14.7951 -14.872 -12.904 -12.9346 -14.872 -14.923 -12.9346 -12.9371 -14.923 -14.935 -12.9371 -12.9313 -14.935 -14.9359 0 -0.532802 0 -0.775185 -0.532802 -1.09219 -0.775185 -1.59545 -1.09219 -1.65438 -1.59545 -2.3231 -1.65438 -2.18321 -2.3231 -2.97146 -2.18321 -2.67527 -2.97146 -3.55494 -2.67527 -3.12407 -3.55494 -4.08766 -3.12407 -3.52328 -4.08766 -4.58741 -10.9507 -11.2932 -12.5353 -12.9885 -11.2932 -11.6035 -12.9885 -13.3829 -13.3963 -14.0438 -16.3044 -16.3596 -14.0438 -14.4332 -16.3596 -16.5693 -14.4332 -14.6448 -16.5693 -16.7294 -14.6448 -14.7071 -16.7294 -16.8326 -14.7071 -14.7951 -16.8326 -16.8902 -14.7951 -14.872 -16.8902 -16.9352 -14.872 -14.923 -16.9352 -16.9622 -14.923 -14.935 -16.9622 -16.9732 -14.935 -14.9359 -16.9732 -16.9754 0 -0.775185 0 -1.3236 -0.775185 -1.59545 -1.3236 -2.33125 -1.59545 -2.3231 -2.33125 -3.17635 -2.3231 -2.97146 -3.17635 -3.90568 -2.97146 -3.55494 -3.90568 -4.54854 -3.55494 -4.08766 -4.54854 -5.13562 -4.08766 -4.58741 -5.13562 -5.69724 -4.58741 -5.07659 -5.69724 -6.25163 -5.07659 -5.55945 -6.25163 -6.80496 -5.55945 -6.04174 -6.80496 -7.35664 -6.04174 -6.52544 -7.35664 -7.90941 -6.52544 -7.00984 -7.90941 -8.46494 -7.00984 -7.49986 -8.46494 -9.01705 -7.49986 -7.99856 -9.01705 -9.54715 -7.99856 -8.50187 -9.54715 -10.0461 -8.50187 -9.01561 -10.0461 -10.5266 -9.01561 -9.53392 -10.5266 -11.0062 -9.53392 -10.0527 -11.0062 -11.4885 -10.0527 -10.5707 -11.4885 -11.9741 -10.5707 -11.0809 -11.9741 -12.4731 -11.0809 -11.5814 -12.4731 -13.0066 -11.5814 -12.0662 -13.0066 -13.5914 -12.0662 -12.5353 -13.5914 -14.2197 -12.5353 -12.9885 -14.2197 -14.828 -12.9885 -13.3829 -14.828 -15.3011 -14.2254 -17.4677 -17.7099 -17.7182 -17.4677 -16.3044 -17.7182 -18.7641 -16.3044 -16.3596 -18.7641 -18.8031 -16.3596 -16.5693 -18.8031 -18.8414 -16.5693 -16.7294 -18.8414 -18.9272 -16.7294 -16.8326 -18.9272 -18.9992 -16.8326 -16.8902 -18.9992 -19.0348 -16.8902 -16.9352 -19.0348 -19.0422 -16.9352 -16.9622 -19.0422 -19.0394 -16.9622 -16.9732 -19.0394 -19.0333 -16.9732 -16.9754 -19.0333 -19.0309 15.522 17.4121 15.2533 14.558 5.55945 5.8006 4.93586 5.15921 5.8006 6.04174 5.15921 5.38381 4.93586 5.15921 4.30934 4.51785 5.15921 5.38381 4.51785 4.72627 6.04174 6.28359 5.38381 5.60862 6.28359 6.52544 5.60862 5.8333 5.38381 5.60862 4.72627 4.93422 5.60862 5.8333 4.93422 5.14176 6.52544 6.76764 5.8333 6.05783 6.76764 7.00984 6.05783 6.28259 5.8333 6.05783 5.14176 5.34889 6.05783 6.28259 5.34889 5.55551 7.00984 7.25485 6.28259 6.50847 7.25485 7.49986 6.50847 6.73882 6.28259 6.50847 5.55551 5.76154 6.50847 6.73882 5.76154 5.96777 7.49986 7.74921 6.73882 6.97495 7.74921 7.99856 6.97495 7.21941 7.99856 8.25021 7.21941 7.46825 8.25021 8.50187 7.46825 7.72714 8.50187 8.75874 7.72714 7.99226 8.75874 9.01561 7.99226 8.26042 9.01561 9.27476 8.26042 8.52888 9.27476 9.53392 8.52888 8.79734 9.53392 9.79333 8.79734 9.06559 9.79333 10.0527 9.06559 9.33357 10.0527 10.3117 9.33357 9.60133 10.3117 10.5707 9.60133 9.86798 10.5707 10.8258 9.86798 10.1319 10.8258 11.0809 10.1319 10.3874 11.0809 11.3312 10.3874 10.6352 11.3312 11.5814 10.6352 10.8728 11.5814 11.8238 10.8728 11.1008 11.8238 12.0662 11.1008 11.3127 11.1008 11.3127 10.3956 10.59 14.2254 15.8465 13.6576 13.1502 15.8465 17.4677 13.1502 13.9394 0 0.266401 0 0.205424 0.266401 0.532802 0.205424 0.421463 0.532802 0.812497 0.421463 0.645136 0.812497 1.09219 0.645136 0.879419 0.645136 0.879419 0.467893 0.65971 11.6035 11.7346 10.6821 10.789 11.7346 11.8557 10.789 10.9027 13.3963 13.72 11.9837 11.7746 13.72 14.0438 11.7746 14.1392 11.7746 14.1392 11.5361 10.8875 0 -0.073307 0 -0.132302 1.06505 1.2741 0.774023 0.960146 1.2741 1.48315 0.960146 1.14814 3.77413 3.93494 3.15092 3.2408 3.93494 4.10528 3.2408 3.40117 8.87868 8.97925 8.28089 8.23291 8.28089 8.23291 7.73534 8.10527 10.1957 10.3287 9.24056 9.38311 10.3287 10.461 9.38311 9.51977 10.0577 10.1897 9.12554 9.25946 11.2455 12.6944 10.9116 10.245 -0.0688637 0.355709 -2.50909 -1.29239 0.355709 -0.00518426 -1.29239 -0.0756901 1.33173 1.49349 0.966894 1.12893 2.37208 2.52221 2.02337 2.17624 3.71166 3.47602 3.2187 3.4648 3.47602 4.0942 3.4648 3.64473 7.25178 7.21089 6.1133 5.85724 7.18735 7.6874 3.56031 5.05517 7.6874 7.20959 5.05517 6.55003 10.347 10.6326 9.17718 9.05047 0.0335287 -0.239075 -0.218918 -0.0328965 -0.239075 0.318543 -0.0328965 0.153125 1.2494 1.40537 0.898931 1.05391 2.29275 2.45088 1.93381 2.09007 2.45088 2.61484 2.09007 2.24633 3.91994 4.67159 3.64561 3.42321 4.67159 4.77312 3.42321 3.60089 4.77312 4.87465 3.60089 3.982 6.22723 6.42211 5.70118 5.90326 5.70118 5.90326 5.17513 5.14311 5.8283 5.828 5.12079 5.12284 5.98592 6.1169 5.00922 5.18216 7.39979 7.53362 6.46745 6.60495 8.7102 8.81543 7.68721 7.62295 8.81543 8.92067 7.62295 7.87226 0.334062 0.415246 0.105059 0.153974 0.415246 0.291074 0.153974 0.202889 1.16462 1.31803 0.806948 0.961287 2.18098 2.33598 1.79243 1.9389 2.33598 2.49608 1.9389 2.08537 2.49608 2.65927 2.08537 2.23839 4.29116 4.7989 3.42974 3.67481 5.16729 5.12599 4.34362 4.40725 4.34362 4.40725 3.70233 3.68851 5.08487 4.45096 1.94878 4.27242 6.0824 6.2157 5.15857 5.29383 5.83807 5.97419 4.91913 5.05287 7.2205 7.3248 6.49253 6.45106 7.3248 7.42909 6.45106 6.67331 -0.153369 -0.161202 -0.424644 -1.15904 -0.161202 0.460783 -1.15904 -1.89343 0.460783 -0.0773521 -1.89343 0.0281209 1.06596 1.21476 0.711874 0.858707 2.23236 2.36658 1.76792 1.87321 2.36658 2.49666 1.87321 1.9785 3.70864 3.70738 3.00782 3.00529 3.00782 3.00529 2.30154 2.30973 3.14727 3.59071 2.35833 2.40511 3.59071 3.3499 2.40511 2.4519 4.52861 4.67087 3.58108 3.7137 5.94122 6.40589 5.20707 5.0643 0.240972 -0.0740395 -1.1846 -0.184521 0.909298 1.03348 0.554899 0.677577 2.36247 2.28234 1.5583 1.78395 1.5583 1.78395 1.01148 1.28555 2.06549 1.9319 0.999711 1.19006 3.20665 3.33012 2.2971 2.41307 -0.0103068 -0.13689 9.35653e-12 -4.7784e-13 0.989301 0.986057 0.49465 0.453418 0.49465 0.453418 9.90101e-13 1.00931e-12 0.568761 0.481534 2.92884e-10 -1.58959e-10 9.35653e-12 -4.7784e-13 0.0103068 0.13689 9.90101e-13 1.00931e-12 -0.49465 -0.453418 -0.49465 -0.453418 -0.989301 -0.986057 2.92884e-10 -1.58959e-10 -0.568761 -0.481534 1.1846 0.184521 -0.240972 0.0740395 -0.554899 -0.677577 -0.909298 -1.03348 -1.01148 -1.28555 -1.5583 -1.78395 -1.5583 -1.78395 -2.36247 -2.28234 -0.999711 -1.19006 -2.06549 -1.9319 -2.2971 -2.41307 -3.20665 -3.33012 0.424644 1.15904 0.153369 0.161202 1.15904 1.89343 0.161202 -0.460783 1.89343 -0.0281209 -0.460783 0.0773521 -0.711874 -0.858707 -1.06596 -1.21476 -1.76792 -1.87321 -2.23236 -2.36658 -1.87321 -1.9785 -2.36658 -2.49666 -2.30154 -2.30973 -3.00782 -3.00529 -3.00782 -3.00529 -3.70864 -3.70738 -2.35833 -2.40511 -3.14727 -3.59071 -2.40511 -2.4519 -3.59071 -3.3499 -3.58108 -3.7137 -4.52861 -4.67087 -5.20707 -5.0643 -5.94122 -6.40589 -0.105059 -0.153974 -0.334062 -0.415246 -0.153974 -0.202889 -0.415246 -0.291074 -0.806948 -0.961287 -1.16462 -1.31803 -1.79243 -1.9389 -2.18098 -2.33598 -1.9389 -2.08537 -2.33598 -2.49608 -2.08537 -2.23839 -2.49608 -2.65927 -3.42974 -3.67481 -4.29116 -4.7989 -3.70233 -3.68851 -4.34362 -4.40725 -4.34362 -4.40725 -5.16729 -5.12599 -1.94878 -4.27242 -5.08487 -4.45096 -5.15857 -5.29383 -6.0824 -6.2157 -4.91913 -5.05287 -5.83807 -5.97419 -6.49253 -6.45106 -7.2205 -7.3248 -6.45106 -6.67331 -7.3248 -7.42909 0.218918 0.0328965 -0.0335287 0.239075 0.0328965 -0.153125 0.239075 -0.318543 -0.898931 -1.05391 -1.2494 -1.40537 -1.93381 -2.09007 -2.29275 -2.45088 -2.09007 -2.24633 -2.45088 -2.61484 -3.64561 -3.42321 -3.91994 -4.67159 -3.42321 -3.60089 -4.67159 -4.77312 -3.60089 -3.982 -4.77312 -4.87465 -5.17513 -5.14311 -5.70118 -5.90326 -5.70118 -5.90326 -6.22723 -6.42211 -5.12079 -5.12284 -5.8283 -5.828 -5.00922 -5.18216 -5.98592 -6.1169 -6.46745 -6.60495 -7.39979 -7.53362 -7.68721 -7.62295 -8.7102 -8.81543 -7.62295 -7.87226 -8.81543 -8.92067 2.50909 1.29239 0.0688637 -0.355709 1.29239 0.0756901 -0.355709 0.00518426 -0.966894 -1.12893 -1.33173 -1.49349 -2.02337 -2.17624 -2.37208 -2.52221 -3.2187 -3.4648 -3.71166 -3.47602 -3.4648 -3.64473 -3.47602 -4.0942 -6.1133 -5.85724 -7.25178 -7.21089 -3.56031 -5.05517 -7.18735 -7.6874 -5.05517 -6.55003 -7.6874 -7.20959 -9.17718 -9.05047 -10.347 -10.6326 0 0.132302 0 0.073307 -0.774023 -0.960146 -1.06505 -1.2741 -0.960146 -1.14814 -1.2741 -1.48315 -3.15092 -3.2408 -3.77413 -3.93494 -3.2408 -3.40117 -3.93494 -4.10528 -7.73534 -8.10527 -8.28089 -8.23291 -8.28089 -8.23291 -8.87868 -8.97925 -9.24056 -9.38311 -10.1957 -10.3287 -9.38311 -9.51977 -10.3287 -10.461 -9.12554 -9.25946 -10.0577 -10.1897 -10.9116 -10.245 -11.2455 -12.6944 0 -0.205424 0 -0.266401 -0.205424 -0.421463 -0.266401 -0.532802 -0.467893 -0.65971 -0.645136 -0.879419 -0.421463 -0.645136 -0.532802 -0.812497 -0.645136 -0.879419 -0.812497 -1.09219 -10.6821 -10.789 -11.6035 -11.7346 -10.789 -10.9027 -11.7346 -11.8557 -11.5361 -10.8875 -11.7746 -14.1392 -11.9837 -11.7746 -13.3963 -13.72 -11.7746 -14.1392 -13.72 -14.0438 -4.30934 -4.51785 -4.93586 -5.15921 -4.51785 -4.72627 -5.15921 -5.38381 -4.93586 -5.15921 -5.55945 -5.8006 -5.15921 -5.38381 -5.8006 -6.04174 -4.72627 -4.93422 -5.38381 -5.60862 -4.93422 -5.14176 -5.60862 -5.8333 -5.38381 -5.60862 -6.04174 -6.28359 -5.60862 -5.8333 -6.28359 -6.52544 -5.14176 -5.34889 -5.8333 -6.05783 -5.34889 -5.55551 -6.05783 -6.28259 -5.8333 -6.05783 -6.52544 -6.76764 -6.05783 -6.28259 -6.76764 -7.00984 -5.55551 -5.76154 -6.28259 -6.50847 -5.76154 -5.96777 -6.50847 -6.73882 -6.28259 -6.50847 -7.00984 -7.25485 -6.50847 -6.73882 -7.25485 -7.49986 -6.73882 -6.97495 -7.49986 -7.74921 -6.97495 -7.21941 -7.74921 -7.99856 -7.21941 -7.46825 -7.99856 -8.25021 -7.46825 -7.72714 -8.25021 -8.50187 -7.72714 -7.99226 -8.50187 -8.75874 -7.99226 -8.26042 -8.75874 -9.01561 -8.26042 -8.52888 -9.01561 -9.27476 -8.52888 -8.79734 -9.27476 -9.53392 -8.79734 -9.06559 -9.53392 -9.79333 -9.06559 -9.33357 -9.79333 -10.0527 -9.33357 -9.60133 -10.0527 -10.3117 -9.60133 -9.86798 -10.3117 -10.5707 -9.86798 -10.1319 -10.5707 -10.8258 -10.1319 -10.3874 -10.8258 -11.0809 -10.3874 -10.6352 -11.0809 -11.3312 -10.6352 -10.8728 -11.3312 -11.5814 -10.3956 -10.59 -11.1008 -11.3127 -10.8728 -11.1008 -11.5814 -11.8238 -11.1008 -11.3127 -11.8238 -12.0662 -13.6576 -13.1502 -14.2254 -15.8465 -13.1502 -13.9394 -15.8465 -17.4677 -15.2533 -14.558 -15.522 -17.4121 15.3011 15.4641 14.342 14.485 14.342 14.485 13.3829 13.5617 17.4121 17.2221 14.558 15.4882 17.2221 17.7099 15.4882 15.9677 15.4882 15.9677 14.1577 14.2254 5.07659 5.31802 4.49215 4.71408 5.31802 5.55945 4.71408 4.93586 4.49215 4.71408 3.90624 4.10414 4.71408 4.93586 4.10414 4.30934 12.0662 12.3008 11.3127 11.5226 12.3008 12.5353 11.5226 11.743 11.3127 11.5226 10.59 10.7746 11.5226 11.743 10.7746 10.950