# vtk DataFile Version 3.0
#This file was generated by the deal.II library on 2015/9/2 at 7:54: 4
ASCII
DATASET UNSTRUCTURED_GRID

POINTS 41912 double
0 0 0
0.05 0 0
0 0.05 0
0.05 0.05 0
0.05 0 0
0.1 0 0
0.05 0.05 0
0.1 0.05 0
0.1 0 0
0.15 0 0
0.1 0.05 0
0.15 0.05 0
0.15 0 0
0.2 0 0
0.15 0.05 0
0.2 0.05 0
0.2 0 0
0.25 0 0
0.2 0.05 0
0.25 0.05 0
0.25 0 0
0.3 0 0
0.25 0.05 0
0.3 0.05 0
0.3 0 0
0.35 0 0
0.3 0.05 0
0.35 0.05 0
0.35 0 0
0.4 0 0
0.35 0.05 0
0.4 0.05 0
0.4 0 0
0.45 0 0
0.4 0.05 0
0.45 0.05 0
0.45 0 0
0.5 0 0
0.45 0.05 0
0.5 0.05 0
0.5 0 0
0.55 0 0
0.5 0.05 0
0.55 0.05 0
0.55 0 0
0.6 0 0
0.55 0.05 0
0.6 0.05 0
0.6 0 0
0.65 0 0
0.6 0.05 0
0.65 0.05 0
0.65 0 0
0.7 0 0
0.65 0.05 0
0.7 0.05 0
0.7 0 0
0.75 0 0
0.7 0.05 0
0.75 0.05 0
0.75 0 0
0.8 0 0
0.75 0.05 0
0.8 0.05 0
0.8 0 0
0.85 0 0
0.8 0.05 0
0.85 0.05 0
0.85 0 0
0.9 0 0
0.85 0.05 0
0.9 0.05 0
0.9 0 0
0.95 0 0
0.9 0.05 0
0.95 0.05 0
0.95 0 0
1 0 0
0.95 0.05 0
1 0.05 0
1 0 0
1.05 0 0
1 0.05 0
1.05 0.05 0
1.05 0 0
1.1 0 0
1.05 0.05 0
1.1 0.05 0
1.1 0 0
1.15 0 0
1.1 0.05 0
1.15 0.05 0
1.15 0 0
1.2 0 0
1.15 0.05 0
1.2 0.05 0
1.2 0 0
1.25 0 0
1.2 0.05 0
1.25 0.05 0
1.45 0 0
1.5 0 0
1.45 0.05 0
1.5 0.05 0
1.5 0 0
1.55 0 0
1.5 0.05 0
1.55 0.05 0
1.55 0 0
1.6 0 0
1.55 0.05 0
1.6 0.05 0
1.6 0 0
1.65 0 0
1.6 0.05 0
1.65 0.05 0
1.65 0 0
1.7 0 0
1.65 0.05 0
1.7 0.05 0
1.7 0 0
1.75 0 0
1.7 0.05 0
1.75 0.05 0
1.75 0 0
1.8 0 0
1.75 0.05 0
1.8 0.05 0
1.8 0 0
1.85 0 0
1.8 0.05 0
1.85 0.05 0
1.85 0 0
1.9 0 0
1.85 0.05 0
1.9 0.05 0
1.9 0 0
1.95 0 0
1.9 0.05 0
1.95 0.05 0
1.95 0 0
2 0 0
1.95 0.05 0
2 0.05 0
0 0.05 0
0.05 0.05 0
0 0.1 0
0.05 0.1 0
0.05 0.05 0
0.1 0.05 0
0.05 0.1 0
0.1 0.1 0
0.1 0.05 0
0.15 0.05 0
0.1 0.1 0
0.15 0.1 0
0.15 0.05 0
0.2 0.05 0
0.15 0.1 0
0.2 0.1 0
0.2 0.05 0
0.25 0.05 0
0.2 0.1 0
0.25 0.1 0
0.25 0.05 0
0.3 0.05 0
0.25 0.1 0
0.3 0.1 0
0.3 0.05 0
0.35 0.05 0
0.3 0.1 0
0.35 0.1 0
1.15 0.05 0
1.2 0.05 0
1.15 0.1 0
1.2 0.1 0
1.2 0.05 0
1.25 0.05 0
1.2 0.1 0
1.25 0.1 0
1.55 0.05 0
1.6 0.05 0
1.55 0.1 0
1.6 0.1 0
1.6 0.05 0
1.65 0.05 0
1.6 0.1 0
1.65 0.1 0
1.65 0.05 0
1.7 0.05 0
1.65 0.1 0
1.7 0.1 0
1.7 0.05 0
1.75 0.05 0
1.7 0.1 0
1.75 0.1 0
1.75 0.05 0
1.8 0.05 0
1.75 0.1 0
1.8 0.1 0
1.8 0.05 0
1.85 0.05 0
1.8 0.1 0
1.85 0.1 0
1.85 0.05 0
1.9 0.05 0
1.85 0.1 0
1.9 0.1 0
1.9 0.05 0
1.95 0.05 0
1.9 0.1 0
1.95 0.1 0
1.95 0.05 0
2 0.05 0
1.95 0.1 0
2 0.1 0
0.15 0.1 0
0.2 0.1 0
0.15 0.15 0
0.2 0.15 0
0.2 0.1 0
0.25 0.1 0
0.2 0.15 0
0.25 0.15 0
0.25 0.1 0
0.3 0.1 0
0.25 0.15 0
0.3 0.15 0
0.3 0.1 0
0.35 0.1 0
0.3 0.15 0
0.35 0.15 0
1.65 0.1 0
1.7 0.1 0
1.65 0.15 0
1.7 0.15 0
1.7 0.1 0
1.75 0.1 0
1.7 0.15 0
1.75 0.15 0
1.75 0.1 0
1.8 0.1 0
1.75 0.15 0
1.8 0.15 0
1.8 0.1 0
1.85 0.1 0
1.8 0.15 0
1.85 0.15 0
1.85 0.1 0
1.9 0.1 0
1.85 0.15 0
1.9 0.15 0
1.9 0.1 0
1.95 0.1 0
1.9 0.15 0
1.95 0.15 0
1.95 0.1 0
2 0.1 0
1.95 0.15 0
2 0.15 0
0.3 0.15 0
0.35 0.15 0
0.3 0.2 0
0.35 0.2 0
1.75 0.15 0
1.8 0.15 0
1.75 0.2 0
1.8 0.2 0
1.8 0.15 0
1.85 0.15 0
1.8 0.2 0
1.85 0.2 0
1.85 0.15 0
1.9 0.15 0
1.85 0.2 0
1.9 0.2 0
1.9 0.15 0
1.95 0.15 0
1.9 0.2 0
1.95 0.2 0
1.95 0.15 0
2 0.15 0
1.95 0.2 0
2 0.2 0
0.4 0.2 0
0.45 0.2 0
0.4 0.25 0
0.45 0.25 0
0.8 0.2 0
0.85 0.2 0
0.8 0.25 0
0.85 0.25 0
0.85 0.2 0
0.9 0.2 0
0.85 0.25 0
0.9 0.25 0
0.9 0.2 0
0.95 0.2 0
0.9 0.25 0
0.95 0.25 0
0.95 0.2 0
1 0.2 0
0.95 0.25 0
1 0.25 0
1.8 0.2 0
1.85 0.2 0
1.8 0.25 0
1.85 0.25 0
1.85 0.2 0
1.9 0.2 0
1.85 0.25 0
1.9 0.25 0
1.9 0.2 0
1.95 0.2 0
1.9 0.25 0
1.95 0.25 0
1.95 0.2 0
2 0.2 0
1.95 0.25 0
2 0.25 0
0 0.25 0
0.05 0.25 0
0 0.3 0
0.05 0.3 0
0.05 0.25 0
0.1 0.25 0
0.05 0.3 0
0.1 0.3 0
0.1 0.25 0
0.15 0.25 0
0.1 0.3 0
0.15 0.3 0
0.95 0.25 0
1 0.25 0
0.95 0.3 0
1 0.3 0
1.25 0.25 0
1.3 0.25 0
1.25 0.3 0
1.3 0.3 0
1.3 0.25 0
1.35 0.25 0
1.3 0.3 0
1.35 0.3 0
1.9 0.25 0
1.95 0.25 0
1.9 0.3 0
1.95 0.3 0
1.95 0.25 0
2 0.25 0
1.95 0.3 0
2 0.3 0
0 0.3 0
0.05 0.3 0
0 0.35 0
0.05 0.35 0
0.05 0.3 0
0.1 0.3 0
0.05 0.35 0
0.1 0.35 0
0.1 0.3 0
0.15 0.3 0
0.1 0.35 0
0.15 0.35 0
0.15 0.3 0
0.2 0.3 0
0.15 0.35 0
0.2 0.35 0
0.2 0.3 0
0.25 0.3 0
0.2 0.35 0
0.25 0.35 0
0.6 0.3 0
0.65 0.3 0
0.6 0.35 0
0.65 0.35 0
1.2 0.3 0
1.25 0.3 0
1.2 0.35 0
1.25 0.35 0
1.25 0.3 0
1.3 0.3 0
1.25 0.35 0
1.3 0.35 0
1.3 0.3 0
1.35 0.3 0
1.3 0.35 0
1.35 0.35 0
1.35 0.3 0
1.4 0.3 0
1.35 0.35 0
1.4 0.35 0
0 0.35 0
0.05 0.35 0
0 0.4 0
0.05 0.4 0
0.05 0.35 0
0.1 0.35 0
0.05 0.4 0
0.1 0.4 0
0.1 0.35 0
0.15 0.35 0
0.1 0.4 0
0.15 0.4 0
0.15 0.35 0
0.2 0.35 0
0.15 0.4 0
0.2 0.4 0
0.2 0.35 0
0.25 0.35 0
0.2 0.4 0
0.25 0.4 0
0.25 0.35 0
0.3 0.35 0
0.25 0.4 0
0.3 0.4 0
0.3 0.35 0
0.35 0.35 0
0.3 0.4 0
0.35 0.4 0
0.7 0.35 0
0.75 0.35 0
0.7 0.4 0
0.75 0.4 0
1.2 0.35 0
1.25 0.35 0
1.2 0.4 0
1.25 0.4 0
1.25 0.35 0
1.3 0.35 0
1.25 0.4 0
1.3 0.4 0
1.3 0.35 0
1.35 0.35 0
1.3 0.4 0
1.35 0.4 0
1.35 0.35 0
1.4 0.35 0
1.35 0.4 0
1.4 0.4 0
1.4 0.35 0
1.45 0.35 0
1.4 0.4 0
1.45 0.4 0
1.45 0.35 0
1.5 0.35 0
1.45 0.4 0
1.5 0.4 0
0 0.4 0
0.05 0.4 0
0 0.45 0
0.05 0.45 0
0.05 0.4 0
0.1 0.4 0
0.05 0.45 0
0.1 0.45 0
0.1 0.4 0
0.15 0.4 0
0.1 0.45 0
0.15 0.45 0
0.15 0.4 0
0.2 0.4 0
0.15 0.45 0
0.2 0.45 0
0.2 0.4 0
0.25 0.4 0
0.2 0.45 0
0.25 0.45 0
0.25 0.4 0
0.3 0.4 0
0.25 0.45 0
0.3 0.45 0
0.3 0.4 0
0.35 0.4 0
0.3 0.45 0
0.35 0.45 0
0.35 0.4 0
0.4 0.4 0
0.35 0.45 0
0.4 0.45 0
0.4 0.4 0
0.45 0.4 0
0.4 0.45 0
0.45 0.45 0
0.75 0.4 0
0.8 0.4 0
0.75 0.45 0
0.8 0.45 0
0.8 0.4 0
0.85 0.4 0
0.8 0.45 0
0.85 0.45 0
0.85 0.4 0
0.9 0.4 0
0.85 0.45 0
0.9 0.45 0
1.15 0.4 0
1.2 0.4 0
1.15 0.45 0
1.2 0.45 0
1.2 0.4 0
1.25 0.4 0
1.2 0.45 0
1.25 0.45 0
1.25 0.4 0
1.3 0.4 0
1.25 0.45 0
1.3 0.45 0
1.3 0.4 0
1.35 0.4 0
1.3 0.45 0
1.35 0.45 0
1.35 0.4 0
1.4 0.4 0
1.35 0.45 0
1.4 0.45 0
1.4 0.4 0
1.45 0.4 0
1.4 0.45 0
1.45 0.45 0
1.45 0.4 0
1.5 0.4 0
1.45 0.45 0
1.5 0.45 0
1.5 0.4 0
1.55 0.4 0
1.5 0.45 0
1.55 0.45 0
1.55 0.4 0
1.6 0.4 0
1.55 0.45 0
1.6 0.45 0
0 0.45 0
0.05 0.45 0
0 0.5 0
0.05 0.5 0
0.05 0.45 0
0.1 0.45 0
0.05 0.5 0
0.1 0.5 0
0.1 0.45 0
0.15 0.45 0
0.1 0.5 0
0.15 0.5 0
0.15 0.45 0
0.2 0.45 0
0.15 0.5 0
0.2 0.5 0
0.2 0.45 0
0.25 0.45 0
0.2 0.5 0
0.25 0.5 0
0.25 0.45 0
0.3 0.45 0
0.25 0.5 0
0.3 0.5 0
0.3 0.45 0
0.35 0.45 0
0.3 0.5 0
0.35 0.5 0
0.35 0.45 0
0.4 0.45 0
0.35 0.5 0
0.4 0.5 0
0.4 0.45 0
0.45 0.45 0
0.4 0.5 0
0.45 0.5 0
0.45 0.45 0
0.5 0.45 0
0.45 0.5 0
0.5 0.5 0
0.5 0.45 0
0.55 0.45 0
0.5 0.5 0
0.55 0.5 0
0.8 0.45 0
0.85 0.45 0
0.8 0.5 0
0.85 0.5 0
0.85 0.45 0
0.9 0.45 0
0.85 0.5 0
0.9 0.5 0
0.9 0.45 0
0.95 0.45 0
0.9 0.5 0
0.95 0.5 0
0.95 0.45 0
1 0.45 0
0.95 0.5 0
1 0.5 0
1.15 0.45 0
1.2 0.45 0
1.15 0.5 0
1.2 0.5 0
1.2 0.45 0
1.25 0.45 0
1.2 0.5 0
1.25 0.5 0
1.25 0.45 0
1.3 0.45 0
1.25 0.5 0
1.3 0.5 0
1.3 0.45 0
1.35 0.45 0
1.3 0.5 0
1.35 0.5 0
1.35 0.45 0
1.4 0.45 0
1.35 0.5 0
1.4 0.5 0
1.4 0.45 0
1.45 0.45 0
1.4 0.5 0
1.45 0.5 0
1.45 0.45 0
1.5 0.45 0
1.45 0.5 0
1.5 0.5 0
1.5 0.45 0
1.55 0.45 0
1.5 0.5 0
1.55 0.5 0
1.55 0.45 0
1.6 0.45 0
1.55 0.5 0
1.6 0.5 0
1.6 0.45 0
1.65 0.45 0
1.6 0.5 0
1.65 0.5 0
1.9 0.45 0
1.95 0.45 0
1.9 0.5 0
1.95 0.5 0
0 0.5 0
0.05 0.5 0
0 0.55 0
0.05 0.55 0
0.05 0.5 0
0.1 0.5 0
0.05 0.55 0
0.1 0.55 0
0.1 0.5 0
0.15 0.5 0
0.1 0.55 0
0.15 0.55 0
0.15 0.5 0
0.2 0.5 0
0.15 0.55 0
0.2 0.55 0
0.2 0.5 0
0.25 0.5 0
0.2 0.55 0
0.25 0.55 0
0.25 0.5 0
0.3 0.5 0
0.25 0.55 0
0.3 0.55 0
0.3 0.5 0
0.35 0.5 0
0.3 0.55 0
0.35 0.55 0
0.35 0.5 0
0.4 0.5 0
0.35 0.55 0
0.4 0.55 0
0.4 0.5 0
0.45 0.5 0
0.4 0.55 0
0.45 0.55 0
0.45 0.5 0
0.5 0.5 0
0.45 0.55 0
0.5 0.55 0
0.5 0.5 0
0.55 0.5 0
0.5 0.55 0
0.55 0.55 0
0.8 0.5 0
0.85 0.5 0
0.8 0.55 0
0.85 0.55 0
0.85 0.5 0
0.9 0.5 0
0.85 0.55 0
0.9 0.55 0
0.9 0.5 0
0.95 0.5 0
0.9 0.55 0
0.95 0.55 0
0.95 0.5 0
1 0.5 0
0.95 0.55 0
1 0.55 0
1.15 0.5 0
1.2 0.5 0
1.15 0.55 0
1.2 0.55 0
1.2 0.5 0
1.25 0.5 0
1.2 0.55 0
1.25 0.55 0
1.25 0.5 0
1.3 0.5 0
1.25 0.55 0
1.3 0.55 0
1.3 0.5 0
1.35 0.5 0
1.3 0.55 0
1.35 0.55 0
1.35 0.5 0
1.4 0.5 0
1.35 0.55 0
1.4 0.55 0
1.4 0.5 0
1.45 0.5 0
1.4 0.55 0
1.45 0.55 0
1.45 0.5 0
1.5 0.5 0
1.45 0.55 0
1.5 0.55 0
1.5 0.5 0
1.55 0.5 0
1.5 0.55 0
1.55 0.55 0
1.55 0.5 0
1.6 0.5 0
1.55 0.55 0
1.6 0.55 0
1.6 0.5 0
1.65 0.5 0
1.6 0.55 0
1.65 0.55 0
1.9 0.5 0
1.95 0.5 0
1.9 0.55 0
1.95 0.55 0
0 0.55 0
0.05 0.55 0
0 0.6 0
0.05 0.6 0
0.05 0.55 0
0.1 0.55 0
0.05 0.6 0
0.1 0.6 0
0.1 0.55 0
0.15 0.55 0
0.1 0.6 0
0.15 0.6 0
0.15 0.55 0
0.2 0.55 0
0.15 0.6 0
0.2 0.6 0
0.2 0.55 0
0.25 0.55 0
0.2 0.6 0
0.25 0.6 0
0.25 0.55 0
0.3 0.55 0
0.25 0.6 0
0.3 0.6 0
0.3 0.55 0
0.35 0.55 0
0.3 0.6 0
0.35 0.6 0
0.35 0.55 0
0.4 0.55 0
0.35 0.6 0
0.4 0.6 0
0.4 0.55 0
0.45 0.55 0
0.4 0.6 0
0.45 0.6 0
0.75 0.55 0
0.8 0.55 0
0.75 0.6 0
0.8 0.6 0
0.8 0.55 0
0.85 0.55 0
0.8 0.6 0
0.85 0.6 0
0.85 0.55 0
0.9 0.55 0
0.85 0.6 0
0.9 0.6 0
1.15 0.55 0
1.2 0.55 0
1.15 0.6 0
1.2 0.6 0
1.2 0.55 0
1.25 0.55 0
1.2 0.6 0
1.25 0.6 0
1.25 0.55 0
1.3 0.55 0
1.25 0.6 0
1.3 0.6 0
1.3 0.55 0
1.35 0.55 0
1.3 0.6 0
1.35 0.6 0
1.35 0.55 0
1.4 0.55 0
1.35 0.6 0
1.4 0.6 0
1.4 0.55 0
1.45 0.55 0
1.4 0.6 0
1.45 0.6 0
1.45 0.55 0
1.5 0.55 0
1.45 0.6 0
1.5 0.6 0
1.5 0.55 0
1.55 0.55 0
1.5 0.6 0
1.55 0.6 0
1.55 0.55 0
1.6 0.55 0
1.55 0.6 0
1.6 0.6 0
0 0.6 0
0.05 0.6 0
0 0.65 0
0.05 0.65 0
0.05 0.6 0
0.1 0.6 0
0.05 0.65 0
0.1 0.65 0
0.1 0.6 0
0.15 0.6 0
0.1 0.65 0
0.15 0.65 0
0.15 0.6 0
0.2 0.6 0
0.15 0.65 0
0.2 0.65 0
0.2 0.6 0
0.25 0.6 0
0.2 0.65 0
0.25 0.65 0
0.25 0.6 0
0.3 0.6 0
0.25 0.65 0
0.3 0.65 0
0.3 0.6 0
0.35 0.6 0
0.3 0.65 0
0.35 0.65 0
0.7 0.6 0
0.75 0.6 0
0.7 0.65 0
0.75 0.65 0
1.2 0.6 0
1.25 0.6 0
1.2 0.65 0
1.25 0.65 0
1.25 0.6 0
1.3 0.6 0
1.25 0.65 0
1.3 0.65 0
1.3 0.6 0
1.35 0.6 0
1.3 0.65 0
1.35 0.65 0
1.35 0.6 0
1.4 0.6 0
1.35 0.65 0
1.4 0.65 0
1.4 0.6 0
1.45 0.6 0
1.4 0.65 0
1.45 0.65 0
1.45 0.6 0
1.5 0.6 0
1.45 0.65 0
1.5 0.65 0
0 0.65 0
0.05 0.65 0
0 0.7 0
0.05 0.7 0
0.05 0.65 0
0.1 0.65 0
0.05 0.7 0
0.1 0.7 0
0.1 0.65 0
0.15 0.65 0
0.1 0.7 0
0.15 0.7 0
0.15 0.65 0
0.2 0.65 0
0.15 0.7 0
0.2 0.7 0
0.2 0.65 0
0.25 0.65 0
0.2 0.7 0
0.25 0.7 0
0.6 0.65 0
0.65 0.65 0
0.6 0.7 0
0.65 0.7 0
1.2 0.65 0
1.25 0.65 0
1.2 0.7 0
1.25 0.7 0
1.25 0.65 0
1.3 0.65 0
1.25 0.7 0
1.3 0.7 0
1.3 0.65 0
1.35 0.65 0
1.3 0.7 0
1.35 0.7 0
[...]
POINT_DATA 41912
SCALARS x_displacement double 1
LOOKUP_TABLE default
0 1.32636 0 0.77628 1.32636 2.33577 0.77628 1.59762 2.33577 3.1817 1.59762 2.32605 3.1817 3.91115 2.32605 2.97477 3.91115 4.55379 2.97477 3.55852 4.55379 5.14082 3.55852 4.0914 5.14082 5.70327 4.0914 4.59111 5.70327 6.25999 4.59111 5.08056 6.25999 6.81713 5.08056 5.56384 6.81713 7.3734 5.56384 6.04638 7.3734 7.93112 6.04638 6.53036 7.93112 8.49099 6.53036 7.0161 8.49099 9.04314 7.0161 7.50967 9.04314 9.56813 7.50967 8.01139 9.56813 10.0628 8.01139 8.51882 10.0628 10.5447 8.51882 9.03662 10.5447 11.0288 9.03662 9.55701 11.0288 11.5164 9.55701 10.0776 11.5164 12.0072 10.0776 10.5982 12.0072 12.5084 10.5982 11.1123 12.5084 13.0418 11.1123 11.6156 13.0418 13.6285 11.6156 12.1043 13.6285 14.2617 12.1043 12.5761 14.2617 14.8743 12.5761 13.0309 14.8743 15.3488 13.0309 13.4266 17.2217 17.2743 14.3288 15.8183 17.2743 18.1577 15.8183 15.6554 18.1577 18.3677 15.6554 15.9588 18.3677 18.5095 15.9588 16.3136 18.5095 18.6856 16.3136 16.5385 18.6856 18.847 16.5385 16.7496 18.847 18.9787 16.7496 16.8548 18.9787 19.0432 16.8548 16.927 19.0432 19.0659 16.927 16.9697 19.0659 19.0664 16.9697 16.9876 19.0664 19.0643 16.9876 16.9908 0 0.77628 0 0.532822 0.77628 1.59762 0.532822 1.09287 1.59762 2.32605 1.09287 1.6554 2.32605 2.97477 1.6554 2.18483 2.97477 3.55852 2.18483 2.67725 3.55852 4.0914 2.67725 3.1263 4.0914 4.59111 3.1263 3.52504 12.5761 13.0309 10.9911 11.3322 13.0309 13.4266 11.3322 11.6415 15.6554 15.9588 13.142 13.8645 15.9588 16.3136 13.8645 14.2036 16.3136 16.5385 14.2036 14.6822 16.5385 16.7496 14.6822 14.7352 16.7496 16.8548 14.7352 14.8064 16.8548 16.927 14.8064 14.8802 16.927 16.9697 14.8802 14.9342 16.9697 16.9876 14.9342 14.945 16.9876 16.9908 14.945 14.9432 1.6554 2.18483 1.06439 1.48288 2.18483 2.67725 1.48288 1.89162 2.67725 3.1263 1.89162 2.26595 3.1263 3.52504 2.26595 2.5907 14.2036 14.6822 14.019 12.6981 14.6822 14.7352 12.6981 12.6834 14.7352 14.8064 12.6834 12.7672 14.8064 14.8802 12.7672 12.9249 14.8802 14.9342 12.9249 12.9522 14.9342 14.945 12.9522 12.9525 14.945 14.9432 12.9525 12.9408 2.26595 2.5907 1.49504 1.81404 12.6834 12.7672 10.5289 11.0161 12.7672 12.9249 11.0161 10.9581 12.9249 12.9522 10.9581 11.0092 12.9522 12.9525 11.0092 11.0222 12.9525 12.9408 11.0222 10.9964 2.12763 2.43044 1.41178 1.72348 5.09827 5.80149 4.26263 4.60837 5.80149 6.37193 4.60837 5.33142 6.37193 6.91606 5.33142 5.80868 6.91606 7.36624 5.80868 6.17396 11.0161 10.9581 8.58715 8.89371 10.9581 11.0092 8.89371 9.10248 11.0092 11.0222 9.10248 9.17892 11.0222 10.9964 9.17892 9.17071 0 -0.131797 0 -0.137179 -0.131797 -0.806138 -0.137179 -0.174169 -0.806138 -0.273326 -0.174169 -0.43948 5.80868 6.17396 4.70668 5.26583 5.96043 3.89607 5.08657 5.12182 3.89607 6.5118 5.12182 4.86038 9.10248 9.17892 7.14317 7.53124 9.17892 9.17071 7.53124 7.50883 0 -0.137179 0 -0.02078 -0.137179 -0.174169 -0.02078 -0.064614 -0.174169 -0.43948 -0.064614 -0.0218872 -0.43948 0.0444993 -0.0218872 -0.0584087 0.0444993 -0.233112 -0.0584087 0.0741269 1.94615 2.26186 1.2251 1.51997 5.14498 5.08657 3.84574 4.01361 5.08657 5.12182 4.01361 3.86118 5.12182 4.86038 3.86118 3.71628 4.86038 5.06904 3.71628 3.45414 0 -0.02078 0 0.00164368 -0.02078 -0.064614 0.00164368 0.0124705 -0.064614 -0.0218872 0.0124705 0.00380986 -0.0218872 -0.0584087 0.00380986 0.00785679 -0.0584087 0.0741269 0.00785679 -0.00559043 0.0741269 0.141973 -0.00559043 0.0214488 0.141973 0.346447 0.0214488 -0.0122546 1.80486 2.09879 1.04016 1.28649 3.84574 4.01361 2.7138 2.46025 4.01361 3.86118 2.46025 2.53998 3.86118 3.71628 2.53998 2.45084 3.71628 3.45414 2.45084 2.37027 3.45414 3.34796 2.37027 2.19962 3.34796 2.33125 2.19962 2.54142 0 0.00164368 0 0.00723047 0.00164368 0.0124705 0.00723047 0.0115748 0.0124705 0.00380986 0.0115748 0.0116045 0.00380986 0.00785679 0.0116045 0.000636577 0.00785679 -0.00559043 0.000636577 -0.00998441 -0.00559043 0.0214488 -0.00998441 -0.0342449 0.0214488 -0.0122546 -0.0342449 -0.0826185 -0.0122546 -0.12928 -0.0826185 -0.204007 -0.12928 -0.863903 -0.204007 -0.293619 1.28649 1.5392 0.544955 0.726047 1.5392 1.77878 0.726047 0.867531 1.77878 1.99104 0.867531 0.968571 2.29314 2.7138 1.36467 1.44033 2.7138 2.46025 1.44033 1.3082 2.46025 2.53998 1.3082 1.23578 2.53998 2.45084 1.23578 1.22651 2.45084 2.37027 1.22651 1.18801 2.37027 2.19962 1.18801 1.2211 2.19962 2.54142 1.2211 1.18516 2.54142 2.42762 1.18516 1.11726 2.42762 2.5993 1.11726 0.798899 0 0.00723047 0 6.04203e-12 0.00723047 0.0115748 6.04203e-12 1.70665e-11 0.0115748 0.0116045 1.70665e-11 2.51699e-11 0.0116045 0.000636577 2.51699e-11 2.47069e-11 0.000636577 -0.00998441 2.47069e-11 1.74757e-11 -0.00998441 -0.0342449 1.74757e-11 1.2381e-11 -0.0342449 -0.0826185 1.2381e-11 9.60862e-12 -0.0826185 -0.204007 9.60862e-12 7.28278e-12 -0.204007 -0.293619 7.28278e-12 5.35238e-12 -0.293619 -0.627841 5.35238e-12 -4.37444e-12 -0.627841 -1.82872 -4.37444e-12 4.36404e-12 0.726047 0.867531 1.19282e-12 1.24768e-12 0.867531 0.968571 1.24768e-12 1.26901e-12 0.968571 1.01386 1.26901e-12 1.44847e-12 1.01386 0.995279 1.44847e-12 1.96177e-12 1.36467 1.44033 -6.14005e-11 1.28817e-10 1.44033 1.3082 1.28817e-10 6.48049e-10 1.3082 1.23578 6.48049e-10 5.15369e-10 1.23578 1.22651 5.15369e-10 2.65419e-10 1.22651 1.18801 2.65419e-10 -1.00787e-09 1.18801 1.2211 -1.00787e-09 -4.88539e-11 1.2211 1.18516 -4.88539e-11 3.63286e-10 1.18516 1.11726 3.63286e-10 1.20114e-09 1.11726 0.798899 1.20114e-09 9.74794e-10 0.798899 1.11708 9.74794e-10 8.55658e-10 1.92123 2.1276 -8.91259e-14 2.40138e-13 0 6.04203e-12 0 -0.00723047 6.04203e-12 1.70665e-11 -0.00723047 -0.0115748 1.70665e-11 2.51699e-11 -0.0115748 -0.0116045 2.51699e-11 2.47069e-11 -0.0116045 -0.000636577 2.47069e-11 1.74757e-11 -0.000636577 0.00998442 1.74757e-11 1.2381e-11 0.00998442 0.0342449 1.2381e-11 9.60862e-12 0.0342449 0.0826185 9.60862e-12 7.28278e-12 0.0826185 0.204007 7.28278e-12 5.35238e-12 0.204007 0.293619 5.35238e-12 -4.37444e-12 0.293619 0.627841 -4.37444e-12 4.36404e-12 0.627841 1.82872 1.19282e-12 1.24768e-12 -0.726047 -0.867531 1.24768e-12 1.26901e-12 -0.867531 -0.968571 1.26901e-12 1.44847e-12 -0.968571 -1.01386 1.44847e-12 1.96177e-12 -1.01386 -0.995279 -6.14005e-11 1.28817e-10 -1.36467 -1.44033 1.28817e-10 6.48049e-10 -1.44033 -1.3082 6.48049e-10 5.15369e-10 -1.3082 -1.23578 5.15369e-10 2.65419e-10 -1.23578 -1.22651 2.65419e-10 -1.00787e-09 -1.22651 -1.18801 -1.00787e-09 -4.88539e-11 -1.18801 -1.2211 -4.88539e-11 3.63286e-10 -1.2211 -1.18516 3.63286e-10 1.20114e-09 -1.18516 -1.11726 1.20114e-09 9.74794e-10 -1.11726 -0.798899 9.74794e-10 8.55658e-10 -0.798899 -1.11708 -8.91259e-14 2.40138e-13 -1.92123 -2.1276 0 -0.00723047 0 -0.00164368 -0.00723047 -0.0115748 -0.00164368 -0.0124705 -0.0115748 -0.0116045 -0.0124705 -0.00380986 -0.0116045 -0.000636577 -0.00380986 -0.00785679 -0.000636577 0.00998442 -0.00785679 0.00559043 0.00998442 0.0342449 0.00559043 -0.0214488 0.0342449 0.0826185 -0.0214488 0.0122546 0.0826185 0.204007 0.0122546 0.12928 0.204007 0.293619 0.12928 0.863903 -0.544955 -0.726047 -1.28649 -1.5392 -0.726047 -0.867531 -1.5392 -1.77878 -0.867531 -0.968571 -1.77878 -1.99104 -1.36467 -1.44033 -2.29314 -2.7138 -1.44033 -1.3082 -2.7138 -2.46025 -1.3082 -1.23578 -2.46025 -2.53998 -1.23578 -1.22651 -2.53998 -2.45084 -1.22651 -1.18801 -2.45084 -2.37027 -1.18801 -1.2211 -2.37027 -2.19962 -1.2211 -1.18516 -2.19962 -2.54142 -1.18516 -1.11726 -2.54142 -2.42762 -1.11726 -0.798899 -2.42762 -2.5993 0 -0.00164368 0 0.02078 -0.00164368 -0.0124705 0.02078 0.064614 -0.0124705 -0.00380986 0.064614 0.0218872 -0.00380986 -0.00785679 0.0218872 0.0584087 -0.00785679 0.00559043 0.0584087 -0.0741269 0.00559043 -0.0214488 -0.0741269 -0.141973 -0.0214488 0.0122546 -0.141973 -0.346447 -1.04016 -1.28649 -1.80486 -2.09879 -2.7138 -2.46025 -3.84574 -4.01361 -2.46025 -2.53998 -4.01361 -3.86118 -2.53998 -2.45084 -3.86118 -3.71628 -2.45084 -2.37027 -3.71628 -3.45414 -2.37027 -2.19962 -3.45414 -3.34796 -2.19962 -2.54142 -3.34796 -2.33125 0 0.02078 0 0.137179 0.02078 0.064614 0.137179 0.174169 0.064614 0.0218872 0.174169 0.43948 0.0218872 0.0584087 0.43948 -0.0444993 0.0584087 -0.0741269 -0.0444993 0.233112 -1.2251 -1.51997 -1.94615 -2.26186 -3.84574 -4.01361 -5.14498 -5.08657 -4.01361 -3.86118 -5.08657 -5.12182 -3.86118 -3.71628 -5.12182 -4.86038 -3.71628 -3.45414 -4.86038 -5.06904 0 0.137179 0 0.131797 0.137179 0.174169 0.131797 0.806138 0.174169 0.43948 0.806138 0.273326 -4.70668 -5.26583 -5.80868 -6.17396 -5.08657 -5.12182 -5.96043 -3.89607 -5.12182 -4.86038 -3.89607 -6.5118 -7.14317 -7.53124 -9.10248 -9.17892 -7.53124 -7.50883 -9.17892 -9.17071 -1.41178 -1.72348 -2.12763 -2.43044 -4.26263 -4.60837 -5.09827 -5.80149 -4.60837 -5.33142 -5.80149 -6.37193 -5.33142 -5.80868 -6.37193 -6.91606 -5.80868 -6.17396 -6.91606 -7.36624 -8.58715 -8.89371 -11.0161 -10.9581 -8.89371 -9.10248 -10.9581 -11.0092 -9.10248 -9.17892 -11.0092 -11.0222 -9.17892 -9.17071 -11.0222 -10.9964 -1.49504 -1.81404 -2.26595 -2.5907 -10.5289 -11.0161 -12.6834 -12.7672 -11.0161 -10.9581 -12.7672 -12.9249 -10.9581 -11.0092 -12.9249 -12.9522 -11.0092 -11.0222 -12.9522 -12.9525 -11.0222 -10.9964 -12.9525 -12.9408 -1.06439 -1.48288 -1.6554 -2.18483 -1.48288 -1.89162 -2.18483 -2.67725 -1.89162 -2.26595 -2.67725 -3.1263 -2.26595 -2.5907 -3.1263 -3.52504 -14.019 -12.6981 -14.2036 -14.6822 -12.6981 -12.6834 -14.6822 -14.7352 -12.6834 -12.7672 -14.7352 -14.8064 -12.7672 -12.9249 -14.8064 -14.8802 -12.9249 -12.9522 -14.8802 -14.9342 -12.9522 -12.9525 -14.9342 -14.945 -12.9525 -12.9408 -14.945 -14.9432 0 -0.532822 0 -0.77628 -0.532822 -1.09287 -0.77628 -1.59762 -1.09287 -1.6554 -1.59762 -2.32605 -1.6554 -2.18483 -2.32605 -2.97477 -2.18483 -2.67725 -2.97477 -3.55852 -2.67725 -3.1263 -3.55852 -4.0914 -3.1263 -3.52504 -4.0914 -4.59111 -10.9911 -11.3322 -12.5761 -13.0309 -11.3322 -11.6415 -13.0309 -13.4266 -13.142 -13.8645 -15.6554 -15.9588 -13.8645 -14.2036 -15.9588 -16.3136 -14.2036 -14.6822 -16.3136 -16.5385 -14.6822 -14.7352 -16.5385 -16.7496 -14.7352 -14.8064 -16.7496 -16.8548 -14.8064 -14.8802 -16.8548 -16.927 -14.8802 -14.9342 -16.927 -16.9697 -14.9342 -14.945 -16.9697 -16.9876 -14.945 -14.9432 -16.9876 -16.9908 0 -0.77628 0 -1.32636 -0.77628 -1.59762 -1.32636 -2.33577 -1.59762 -2.32605 -2.33577 -3.1817 -2.32605 -2.97477 -3.1817 -3.91115 -2.97477 -3.55852 -3.91115 -4.55379 -3.55852 -4.0914 -4.55379 -5.14082 -4.0914 -4.59111 -5.14082 -5.70327 -4.59111 -5.08056 -5.70327 -6.25999 -5.08056 -5.56384 -6.25999 -6.81713 -5.56384 -6.04638 -6.81713 -7.3734 -6.04638 -6.53036 -7.3734 -7.93112 -6.53036 -7.0161 -7.93112 -8.49099 -7.0161 -7.50967 -8.49099 -9.04314 -7.50967 -8.01139 -9.04314 -9.56813 -8.01139 -8.51882 -9.56813 -10.0628 -8.51882 -9.03662 -10.0628 -10.5447 -9.03662 -9.55701 -10.5447 -11.0288 -9.55701 -10.0776 -11.0288 -11.5164 -10.0776 -10.5982 -11.5164 -12.0072 -10.5982 -11.1123 -12.0072 -12.5084 -11.1123 -11.6156 -12.5084 -13.0418 -11.6156 -12.1043 -13.0418 -13.6285 -12.1043 -12.5761 -13.6285 -14.2617 -12.5761 -13.0309 -14.2617 -14.8743 -13.0309 -13.4266 -14.8743 -15.3488 -14.3288 -15.8183 -17.2217 -17.2743 -15.8183 -15.6554 -17.2743 -18.1577 -15.6554 -15.9588 -18.1577 -18.3677 -15.9588 -16.3136 -18.3677 -18.5095 -16.3136 -16.5385 -18.5095 -18.6856 -16.5385 -16.7496 -18.6856 -18.847 -16.7496 -16.8548 -18.847 -18.9787 -16.8548 -16.927 -18.9787 -19.0432 -16.927 -16.9697 -19.0432 -19.0659 -16.9697 -16.9876 -19.0659 -19.0664 -16.9876 -16.9908 -19.0664 -19.0643 14.8215 19.1894 15.2731 14.0066 5.56384 5.80511 4.93623 5.15866 5.80511 6.04638 5.15866 5.3823 4.93623 5.15866 4.3056 4.5122 5.15866 5.3823 4.5122 4.71867 6.04638 6.28837 5.3823 5.60615 6.28837 6.53036 5.60615 5.82992 5.3823 5.60615 4.71867 4.92463 5.60615 5.82992 4.92463 5.13008 6.53036 6.77323 5.82992 6.05368 6.77323 7.0161 6.05368 6.2783 5.82992 6.05368 5.13008 5.33505 6.05368 6.2783 5.33505 5.53929 7.0161 7.26288 6.2783 6.50543 7.26288 7.50967 6.50543 6.73923 6.2783 6.50543 5.53929 5.74302 6.50543 6.73923 5.74302 5.95037 7.50967 7.76053 6.73923 6.97913 7.76053 8.01139 6.97913 7.22801 8.01139 8.26511 7.22801 7.48189 8.26511 8.51882 7.48189 7.74547 8.51882 8.77772 7.74547 8.01354 8.77772 9.03662 8.01354 8.28281 9.03662 9.29682 8.28281 8.55183 9.29682 9.55701 8.55183 8.82053 9.55701 9.81729 8.82053 9.08893 9.81729 10.0776 9.08893 9.35695 10.0776 10.3379 9.35695 9.62471 10.3379 10.5982 9.62471 9.89183 10.5982 10.8552 9.89183 10.1574 10.8552 11.1123 10.1574 10.4162 11.1123 11.364 10.4162 10.6668 11.364 11.6156 10.6668 10.9072 11.6156 11.8599 10.9072 11.1381 11.8599 12.1043 11.1381 11.3522 11.1381 11.3522 10.4394 10.6323 14.3288 15.0736 13.6607 13.4525 15.0736 15.8183 13.4525 13.6497 0 0.266411 0 0.204817 0.266411 0.532822 0.204817 0.420555 0.532822 0.812845 0.420555 0.644966 0.812845 1.09287 0.644966 0.879308 0.644966 0.879308 0.466594 0.656584 11.6415 11.7723 10.7159 10.8225 11.7723 11.8934 10.8225 10.9367 13.142 13.5033 12.0433 11.6683 13.5033 13.8645 11.6683 13.6715 11.6683 13.6715 11.5536 11.0186 0 -0.0620968 0 -0.112674 1.06439 1.27363 0.771994 0.957908 1.27363 1.48288 0.957908 1.14717 3.74626 3.90335 3.14089 3.22545 3.90335 4.0685 3.22545 3.3476 8.92732 9.02924 8.30744 8.26691 8.30744 8.26691 7.80738 8.15588 10.2264 10.3599 9.26535 9.40922 10.3599 10.4928 9.40922 9.54681 10.0891 10.2215 9.15386 9.2894 10.6417 14.019 10.9149 9.87 0.267795 0.0799181 -0.806138 -0.539732 0.0799181 -0.0125531 -0.539732 -0.273326 1.33356 1.49504 0.967244 1.13043 2.37839 2.52845 2.03096 2.18409 3.94515 3.23679 3.25777 3.55612 3.23679 3.85618 3.55612 3.85071 7.30215 7.23182 5.88487 5.96043 7.18135 7.64479 3.89607 5.20393 7.64479 7.22375 5.20393 6.5118 10.2841 10.5289 9.13586 8.95613 0.0901155 -0.281128 0.0444993 -0.0943065 -0.281128 0.148112 -0.0943065 -0.233112 1.25565 1.41178 0.907686 1.06209 2.30601 2.46601 1.94615 2.104 2.46601 2.63086 2.104 2.26186 3.95961 4.26263 3.64071 3.55634 4.26263 4.4355 3.55634 2.8802 4.4355 4.60837 2.8802 4.11544 6.17396 6.55587 5.71989 5.81298 5.71989 5.81298 5.26583 5.23539 5.847 5.84712 5.14205 5.14404 6.38591 6.14661 5.06904 5.35828 7.42097 7.55496 6.48294 6.62139 8.58715 8.74043 7.72069 7.72067 8.74043 8.89371 7.72067 7.82014 0.355868 0.471799 0.141973 0.24421 0.471799 0.30244 0.24421 0.346447 1.173 1.32664 0.814231 0.968736 2.19664 2.35222 1.80486 1.95182 2.35222 2.51308 1.95182 2.09879 2.51308 2.6759 2.09879 2.2526 3.99695 4.70668 3.42987 3.4177 5.2037 5.14498 4.36596 4.49536 4.36596 4.49536 3.68807 3.84574 5.05603 4.5054 2.33125 4.38991 6.09698 6.2302 5.16781 5.30449 5.85593 5.99333 4.93317 5.06717 7.14317 7.33721 6.51795 6.33068 7.33721 7.53124 6.33068 6.57849 0.154847 0.158392 -0.12928 -0.496592 0.158392 0.0879017 -0.496592 -0.863903 0.0879017 -0.0730315 -0.863903 -0.315779 1.0752 1.2251 0.722309 0.869077 2.2458 2.38074 1.77878 1.88491 2.38074 2.51185 1.88491 1.99104 3.72279 3.72276 3.02072 3.01901 3.02072 3.01901 2.31432 2.32162 3.19965 3.63927 2.42762 2.51346 3.63927 3.39213 2.51346 2.5993 4.53989 4.68286 3.58863 3.72192 5.18085 8.29173 5.31383 4.42869 0.411669 -0.0859061 -1.82872 -0.0895398 0.91492 1.04016 0.558765 0.681457 2.38181 2.29314 1.5692 1.82891 1.5692 1.82891 0.98536 1.36467 2.05608 2.06461 1.11708 1.22219 3.21156 3.33651 2.30071 2.41616 0.0185317 -0.139137 1.54901e-11 -4.46827e-12 0.995279 0.991531 0.49764 0.457249 0.49764 0.457249 1.96177e-12 2.33734e-12 0.586547 0.434245 -4.38837e-10 1.77803e-10 1.54901e-11 -4.46827e-12 -0.0185317 0.139137 1.96177e-12 2.33734e-12 -0.49764 -0.457249 -0.49764 -0.457249 -0.995279 -0.991531 -4.38837e-10 1.77803e-10 -0.586547 -0.434245 1.82872 0.0895398 -0.411669 0.0859061 -0.558765 -0.681457 -0.91492 -1.04016 -0.98536 -1.36467 -1.5692 -1.82891 -1.5692 -1.82891 -2.38181 -2.29314 -1.11708 -1.22219 -2.05608 -2.06461 -2.30071 -2.41616 -3.21156 -3.33651 0.12928 0.496592 -0.154847 -0.158392 0.496592 0.863903 -0.158392 -0.0879017 0.863903 0.315779 -0.0879017 0.0730315 -0.722309 -0.869077 -1.0752 -1.2251 -1.77878 -1.88491 -2.2458 -2.38074 -1.88491 -1.99104 -2.38074 -2.51185 -2.31432 -2.32162 -3.02072 -3.01901 -3.02072 -3.01901 -3.72279 -3.72276 -2.42762 -2.51346 -3.19965 -3.63927 -2.51346 -2.5993 -3.63927 -3.39213 -3.58863 -3.72192 -4.53989 -4.68286 -5.31383 -4.42869 -5.18085 -8.29173 -0.141973 -0.24421 -0.355868 -0.471799 -0.24421 -0.346447 -0.471799 -0.30244 -0.814231 -0.968736 -1.173 -1.32664 -1.80486 -1.95182 -2.19664 -2.35222 -1.95182 -2.09879 -2.35222 -2.51308 -2.09879 -2.2526 -2.51308 -2.6759 -3.42987 -3.4177 -3.99695 -4.70668 -3.68807 -3.84574 -4.36596 -4.49536 -4.36596 -4.49536 -5.2037 -5.14498 -2.33125 -4.38991 -5.05603 -4.5054 -5.16781 -5.30449 -6.09698 -6.2302 -4.93317 -5.06717 -5.85593 -5.99333 -6.51795 -6.33068 -7.14317 -7.33721 -6.33068 -6.57849 -7.33721 -7.53124 -0.0444993 0.0943065 -0.0901155 0.281128 0.0943065 0.233112 0.281128 -0.148112 -0.907686 -1.06209 -1.25565 -1.41178 -1.94615 -2.104 -2.30601 -2.46601 -2.104 -2.26186 -2.46601 -2.63086 -3.64071 -3.55634 -3.95961 -4.26263 -3.55634 -2.8802 -4.26263 -4.4355 -2.8802 -4.11544 -4.4355 -4.60837 -5.26583 -5.23539 -5.71989 -5.81298 -5.71989 -5.81298 -6.17396 -6.55587 -5.14205 -5.14404 -5.847 -5.84712 -5.06904 -5.35828 -6.38591 -6.14661 -6.48294 -6.62139 -7.42097 -7.55496 -7.72069 -7.72067 -8.58715 -8.74043 -7.72067 -7.82014 -8.74043 -8.89371 0.806138 0.539732 -0.267795 -0.0799181 0.539732 0.273326 -0.0799181 0.0125531 -0.967244 -1.13043 -1.33356 -1.49504 -2.03096 -2.18409 -2.37839 -2.52845 -3.25777 -3.55612 -3.94515 -3.23679 -3.55612 -3.85071 -3.23679 -3.85618 -5.88487 -5.96043 -7.30215 -7.23182 -3.89607 -5.20393 -7.18135 -7.64479 -5.20393 -6.5118 -7.64479 -7.22375 -9.13586 -8.95613 -10.2841 -10.5289 0 0.112674 0 0.0620968 -0.771994 -0.957908 -1.06439 -1.27363 -0.957908 -1.14717 -1.27363 -1.48288 -3.14089 -3.22545 -3.74626 -3.90335 -3.22545 -3.3476 -3.90335 -4.0685 -7.80738 -8.15588 -8.30744 -8.26691 -8.30744 -8.26691 -8.92732 -9.02924 -9.26535 -9.40922 -10.2264 -10.3599 -9.40922 -9.54681 -10.3599 -10.4928 -9.15386 -9.2894 -10.0891 -10.2215 -10.9149 -9.87 -10.6417 -14.019 0 -0.204817 0 -0.266411 -0.204817 -0.420555 -0.266411 -0.532822 -0.466594 -0.656584 -0.644966 -0.879308 -0.420555 -0.644966 -0.532822 -0.812845 -0.644966 -0.879308 -0.812845 -1.09287 -10.7159 -10.8225 -11.6415 -11.7723 -10.8225 -10.9367 -11.7723 -11.8934 -11.5536 -11.0186 -11.6683 -13.6715 -12.0433 -11.6683 -13.142 -13.5033 -11.6683 -13.6715 -13.5033 -13.8645 -4.3056 -4.5122 -4.93623 -5.15866 -4.5122 -4.71867 -5.15866 -5.3823 -4.93623 -5.15866 -5.56384 -5.80511 -5.15866 -5.3823 -5.80511 -6.04638 -4.71867 -4.92463 -5.3823 -5.60615 -4.92463 -5.13008 -5.60615 -5.82992 -5.3823 -5.60615 -6.04638 -6.28837 -5.60615 -5.82992 -6.28837 -6.53036 -5.13008 -5.33505 -5.82992 -6.05368 -5.33505 -5.53929 -6.05368 -6.2783 -5.82992 -6.05368 -6.53036 -6.77323 -6.05368 -6.2783 -6.77323 -7.0161 -5.53929 -5.74302 -6.2783 -6.50543 -5.74302 -5.95037 -6.50543 -6.73923 -6.2783 -6.50543 -7.0161 -7.26288 -6.50543 -6.73923 -7.26288 -7.50967 -6.73923 -6.97913 -7.50967 -7.76053 -6.97913 -7.22801 -7.76053 -8.01139 -7.22801 -7.48189 -8.01139 -8.26511 -7.48189 -7.74547 -8.26511 -8.51882 -7.74547 -8.01354 -8.51882 -8.77772 -8.01354 -8.28281 -8.77772 -9.03662 -8.28281 -8.55183 -9.03662 -9.29682 -8.55183 -8.82053 -9.29682 -9.55701 -8.82053 -9.08893 -9.55701 -9.81729 -9.08893 -9.35695 -9.81729 -10.0776 -9.35695 -9.62471 -10.0776 -10.3379 -9.62471 -9.89183 -10.3379 -10.5982 -9.89183 -10.1574 -10.5982 -10.8552 -10.1574 -10.4162 -10.8552 -11.1123 -10.4162 -10.6668 -11.1123 -11.364 -10.6668 -10.9072 -11.364 -11.6156 -10.4394 -10.6323 -11.1381 -11.3522 -10.9072 -11.1381 -11.6156 -11.8599 -11.1381 -11.3522 -11.8599 -12.1043 -13.6607 -13.4525 -14.3288 -15.0736 -13.4525 -13.6497 -15.0736 -15.8183 -15.2731 -14.0066 -14.8215 -19.1894 15.3488 15.511 14.3877 14.5311 14.3877 14.5311 13.4266 13.6064 19.1894 17.4581 14.0066 15.5634 17.4581 17.2217 15.5634 15.7753 15.5634 15.7753 14.1551 14.3288 5.08056 5.3222 4.49368 4.71515 5.3222 5.56384 4.71515 4.93623 4.49368 4.71515 3.90585 4.10228 4.71515 4.93623 4.10228 4.3056 12.1043 12.3402 11.3522 11.563 12.3402 12.5761 11.563 11.7836 11.3522 11.563 10