# vtk DataFile Version 3.0
#This file was generated by the deal.II library on 2015/9/2 at 7:53:47
ASCII
DATASET UNSTRUCTURED_GRID

POINTS 18152 double
0 0 0
0.05 0 0
0 0.05 0
0.05 0.05 0
0.05 0 0
0.1 0 0
0.05 0.05 0
0.1 0.05 0
0.1 0 0
0.15 0 0
0.1 0.05 0
0.15 0.05 0
0.15 0 0
0.2 0 0
0.15 0.05 0
0.2 0.05 0
0.2 0 0
0.25 0 0
0.2 0.05 0
0.25 0.05 0
0.25 0 0
0.3 0 0
0.25 0.05 0
0.3 0.05 0
0.3 0 0
0.35 0 0
0.3 0.05 0
0.35 0.05 0
0.35 0 0
0.4 0 0
0.35 0.05 0
0.4 0.05 0
0.4 0 0
0.45 0 0
0.4 0.05 0
0.45 0.05 0
0.45 0 0
0.5 0 0
0.45 0.05 0
0.5 0.05 0
0.5 0 0
0.55 0 0
0.5 0.05 0
0.55 0.05 0
0.55 0 0
0.6 0 0
0.55 0.05 0
0.6 0.05 0
0.6 0 0
0.65 0 0
0.6 0.05 0
0.65 0.05 0
0.65 0 0
0.7 0 0
0.65 0.05 0
0.7 0.05 0
0.7 0 0
0.75 0 0
0.7 0.05 0
0.75 0.05 0
0.75 0 0
0.8 0 0
0.75 0.05 0
0.8 0.05 0
0.8 0 0
0.85 0 0
0.8 0.05 0
0.85 0.05 0
0.85 0 0
0.9 0 0
0.85 0.05 0
0.9 0.05 0
0.9 0 0
0.95 0 0
0.9 0.05 0
0.95 0.05 0
0.95 0 0
1 0 0
0.95 0.05 0
1 0.05 0
1 0 0
1.05 0 0
1 0.05 0
1.05 0.05 0
1.05 0 0
1.1 0 0
1.05 0.05 0
1.1 0.05 0
1.1 0 0
1.15 0 0
1.1 0.05 0
1.15 0.05 0
1.15 0 0
1.2 0 0
1.15 0.05 0
1.2 0.05 0
1.2 0 0
1.25 0 0
1.2 0.05 0
1.25 0.05 0
1.45 0 0
1.5 0 0
1.45 0.05 0
1.5 0.05 0
1.5 0 0
1.55 0 0
1.5 0.05 0
1.55 0.05 0
1.55 0 0
1.6 0 0
1.55 0.05 0
1.6 0.05 0
1.6 0 0
1.65 0 0
1.6 0.05 0
1.65 0.05 0
1.65 0 0
1.7 0 0
1.65 0.05 0
1.7 0.05 0
1.7 0 0
1.75 0 0
1.7 0.05 0
1.75 0.05 0
1.75 0 0
1.8 0 0
1.75 0.05 0
1.8 0.05 0
1.8 0 0
1.85 0 0
1.8 0.05 0
1.85 0.05 0
1.85 0 0
1.9 0 0
1.85 0.05 0
1.9 0.05 0
1.9 0 0
1.95 0 0
1.9 0.05 0
1.95 0.05 0
1.95 0 0
2 0 0
1.95 0.05 0
2 0.05 0
0 0.05 0
0.05 0.05 0
0 0.1 0
0.05 0.1 0
0.05 0.05 0
0.1 0.05 0
0.05 0.1 0
0.1 0.1 0
0.1 0.05 0
0.15 0.05 0
0.1 0.1 0
0.15 0.1 0
0.15 0.05 0
0.2 0.05 0
0.15 0.1 0
0.2 0.1 0
0.2 0.05 0
0.25 0.05 0
0.2 0.1 0
0.25 0.1 0
0.25 0.05 0
0.3 0.05 0
0.25 0.1 0
0.3 0.1 0
0.3 0.05 0
0.35 0.05 0
0.3 0.1 0
0.35 0.1 0
0.35 0.05 0
0.4 0.05 0
0.35 0.1 0
0.4 0.1 0
1.15 0.05 0
1.2 0.05 0
1.15 0.1 0
1.2 0.1 0
1.2 0.05 0
1.25 0.05 0
1.2 0.1 0
1.25 0.1 0
1.25 0.05 0
1.3 0.05 0
1.25 0.1 0
1.3 0.1 0
1.55 0.05 0
1.6 0.05 0
1.55 0.1 0
1.6 0.1 0
1.6 0.05 0
1.65 0.05 0
1.6 0.1 0
1.65 0.1 0
1.65 0.05 0
1.7 0.05 0
1.65 0.1 0
1.7 0.1 0
1.7 0.05 0
1.75 0.05 0
1.7 0.1 0
1.75 0.1 0
1.75 0.05 0
1.8 0.05 0
1.75 0.1 0
1.8 0.1 0
1.8 0.05 0
1.85 0.05 0
1.8 0.1 0
1.85 0.1 0
1.85 0.05 0
1.9 0.05 0
1.85 0.1 0
1.9 0.1 0
1.9 0.05 0
1.95 0.05 0
1.9 0.1 0
1.95 0.1 0
1.95 0.05 0
2 0.05 0
1.95 0.1 0
2 0.1 0
0.15 0.1 0
0.2 0.1 0
0.15 0.15 0
0.2 0.15 0
0.2 0.1 0
0.25 0.1 0
0.2 0.15 0
0.25 0.15 0
0.25 0.1 0
0.3 0.1 0
0.25 0.15 0
0.3 0.15 0
0.3 0.1 0
0.35 0.1 0
0.3 0.15 0
0.35 0.15 0
1.65 0.1 0
1.7 0.1 0
1.65 0.15 0
1.7 0.15 0
1.7 0.1 0
1.75 0.1 0
1.7 0.15 0
1.75 0.15 0
1.75 0.1 0
1.8 0.1 0
1.75 0.15 0
1.8 0.15 0
1.8 0.1 0
1.85 0.1 0
1.8 0.15 0
1.85 0.15 0
1.85 0.1 0
1.9 0.1 0
1.85 0.15 0
1.9 0.15 0
1.9 0.1 0
1.95 0.1 0
1.9 0.15 0
1.95 0.15 0
1.95 0.1 0
2 0.1 0
1.95 0.15 0
2 0.15 0
0.25 0.15 0
0.3 0.15 0
0.25 0.2 0
0.3 0.2 0
0.3 0.15 0
0.35 0.15 0
0.3 0.2 0
0.35 0.2 0
0.35 0.15 0
0.4 0.15 0
0.35 0.2 0
0.4 0.2 0
0.65 0.15 0
0.7 0.15 0
0.65 0.2 0
0.7 0.2 0
0.7 0.15 0
0.75 0.15 0
0.7 0.2 0
0.75 0.2 0
0.75 0.15 0
0.8 0.15 0
0.75 0.2 0
0.8 0.2 0
0.8 0.15 0
0.85 0.15 0
0.8 0.2 0
0.85 0.2 0
0.85 0.15 0
0.9 0.15 0
0.85 0.2 0
0.9 0.2 0
0.9 0.15 0
0.95 0.15 0
0.9 0.2 0
0.95 0.2 0
0.95 0.15 0
1 0.15 0
0.95 0.2 0
1 0.2 0
1 0.15 0
1.05 0.15 0
1 0.2 0
1.05 0.2 0
1.75 0.15 0
1.8 0.15 0
1.75 0.2 0
1.8 0.2 0
1.8 0.15 0
1.85 0.15 0
1.8 0.2 0
1.85 0.2 0
1.85 0.15 0
1.9 0.15 0
1.85 0.2 0
1.9 0.2 0
1.9 0.15 0
1.95 0.15 0
1.9 0.2 0
1.95 0.2 0
1.95 0.15 0
2 0.15 0
1.95 0.2 0
2 0.2 0
0.35 0.2 0
0.4 0.2 0
0.35 0.25 0
0.4 0.25 0
0.4 0.2 0
0.45 0.2 0
0.4 0.25 0
0.45 0.25 0
0.8 0.2 0
0.85 0.2 0
0.8 0.25 0
0.85 0.25 0
0.85 0.2 0
0.9 0.2 0
0.85 0.25 0
0.9 0.25 0
0.9 0.2 0
0.95 0.2 0
0.9 0.25 0
0.95 0.25 0
0.95 0.2 0
1 0.2 0
0.95 0.25 0
1 0.25 0
1.8 0.2 0
1.85 0.2 0
1.8 0.25 0
1.85 0.25 0
1.85 0.2 0
1.9 0.2 0
1.85 0.25 0
1.9 0.25 0
1.9 0.2 0
1.95 0.2 0
1.9 0.25 0
1.95 0.25 0
1.95 0.2 0
2 0.2 0
1.95 0.25 0
2 0.25 0
0 0.25 0
0.05 0.25 0
0 0.3 0
0.05 0.3 0
0.05 0.25 0
0.1 0.25 0
0.05 0.3 0
0.1 0.3 0
0.1 0.25 0
0.15 0.25 0
0.1 0.3 0
0.15 0.3 0
0.45 0.25 0
0.5 0.25 0
0.45 0.3 0
0.5 0.3 0
0.5 0.25 0
0.55 0.25 0
0.5 0.3 0
0.55 0.3 0
0.9 0.25 0
0.95 0.25 0
0.9 0.3 0
0.95 0.3 0
0.95 0.25 0
1 0.25 0
0.95 0.3 0
1 0.3 0
1.25 0.25 0
1.3 0.25 0
1.25 0.3 0
1.3 0.3 0
1.3 0.25 0
1.35 0.25 0
1.3 0.3 0
1.35 0.3 0
1.9 0.25 0
1.95 0.25 0
1.9 0.3 0
1.95 0.3 0
1.95 0.25 0
2 0.25 0
1.95 0.3 0
2 0.3 0
0 0.3 0
0.05 0.3 0
0 0.35 0
0.05 0.35 0
0.05 0.3 0
0.1 0.3 0
0.05 0.35 0
0.1 0.35 0
0.1 0.3 0
0.15 0.3 0
0.1 0.35 0
0.15 0.35 0
0.15 0.3 0
0.2 0.3 0
0.15 0.35 0
0.2 0.35 0
0.2 0.3 0
0.25 0.3 0
0.2 0.35 0
0.25 0.35 0
0.6 0.3 0
0.65 0.3 0
0.6 0.35 0
0.65 0.35 0
1.2 0.3 0
1.25 0.3 0
1.2 0.35 0
1.25 0.35 0
1.25 0.3 0
1.3 0.3 0
1.25 0.35 0
1.3 0.35 0
1.3 0.3 0
1.35 0.3 0
1.3 0.35 0
1.35 0.35 0
1.35 0.3 0
1.4 0.3 0
1.35 0.35 0
1.4 0.35 0
0 0.35 0
0.05 0.35 0
0 0.4 0
0.05 0.4 0
0.05 0.35 0
0.1 0.35 0
0.05 0.4 0
0.1 0.4 0
0.1 0.35 0
0.15 0.35 0
0.1 0.4 0
0.15 0.4 0
0.15 0.35 0
0.2 0.35 0
0.15 0.4 0
0.2 0.4 0
0.2 0.35 0
0.25 0.35 0
0.2 0.4 0
0.25 0.4 0
0.25 0.35 0
0.3 0.35 0
0.25 0.4 0
0.3 0.4 0
0.3 0.35 0
0.35 0.35 0
0.3 0.4 0
0.35 0.4 0
0.7 0.35 0
0.75 0.35 0
0.7 0.4 0
0.75 0.4 0
0.75 0.35 0
0.8 0.35 0
0.75 0.4 0
0.8 0.4 0
1.2 0.35 0
1.25 0.35 0
1.2 0.4 0
1.25 0.4 0
1.25 0.35 0
1.3 0.35 0
1.25 0.4 0
1.3 0.4 0
1.3 0.35 0
1.35 0.35 0
1.3 0.4 0
1.35 0.4 0
1.35 0.35 0
1.4 0.35 0
1.35 0.4 0
1.4 0.4 0
1.4 0.35 0
1.45 0.35 0
1.4 0.4 0
1.45 0.4 0
1.45 0.35 0
1.5 0.35 0
1.45 0.4 0
1.5 0.4 0
0 0.4 0
0.05 0.4 0
0 0.45 0
0.05 0.45 0
0.05 0.4 0
0.1 0.4 0
0.05 0.45 0
0.1 0.45 0
0.1 0.4 0
0.15 0.4 0
0.1 0.45 0
0.15 0.45 0
0.15 0.4 0
0.2 0.4 0
0.15 0.45 0
0.2 0.45 0
0.2 0.4 0
0.25 0.4 0
0.2 0.45 0
0.25 0.45 0
0.25 0.4 0
0.3 0.4 0
0.25 0.45 0
0.3 0.45 0
0.3 0.4 0
0.35 0.4 0
0.3 0.45 0
0.35 0.45 0
0.35 0.4 0
0.4 0.4 0
0.35 0.45 0
0.4 0.45 0
0.4 0.4 0
0.45 0.4 0
0.4 0.45 0
0.45 0.45 0
0.75 0.4 0
0.8 0.4 0
0.75 0.45 0
0.8 0.45 0
0.8 0.4 0
0.85 0.4 0
0.8 0.45 0
0.85 0.45 0
0.85 0.4 0
0.9 0.4 0
0.85 0.45 0
0.9 0.45 0
1.15 0.4 0
1.2 0.4 0
1.15 0.45 0
1.2 0.45 0
1.2 0.4 0
1.25 0.4 0
1.2 0.45 0
1.25 0.45 0
1.25 0.4 0
1.3 0.4 0
1.25 0.45 0
1.3 0.45 0
1.3 0.4 0
1.35 0.4 0
1.3 0.45 0
1.35 0.45 0
1.35 0.4 0
1.4 0.4 0
1.35 0.45 0
1.4 0.45 0
1.4 0.4 0
1.45 0.4 0
1.4 0.45 0
1.45 0.45 0
1.45 0.4 0
1.5 0.4 0
1.45 0.45 0
1.5 0.45 0
1.5 0.4 0
1.55 0.4 0
1.5 0.45 0
1.55 0.45 0
1.55 0.4 0
1.6 0.4 0
1.55 0.45 0
1.6 0.45 0
1.85 0.4 0
1.9 0.4 0
1.85 0.45 0
1.9 0.45 0
0 0.45 0
0.05 0.45 0
0 0.5 0
0.05 0.5 0
0.05 0.45 0
0.1 0.45 0
0.05 0.5 0
0.1 0.5 0
0.1 0.45 0
0.15 0.45 0
0.1 0.5 0
0.15 0.5 0
0.15 0.45 0
0.2 0.45 0
0.15 0.5 0
0.2 0.5 0
0.2 0.45 0
0.25 0.45 0
0.2 0.5 0
0.25 0.5 0
0.25 0.45 0
0.3 0.45 0
0.25 0.5 0
0.3 0.5 0
0.3 0.45 0
0.35 0.45 0
0.3 0.5 0
0.35 0.5 0
0.35 0.45 0
0.4 0.45 0
0.35 0.5 0
0.4 0.5 0
0.4 0.45 0
0.45 0.45 0
0.4 0.5 0
0.45 0.5 0
0.45 0.45 0
0.5 0.45 0
0.45 0.5 0
0.5 0.5 0
0.5 0.45 0
0.55 0.45 0
0.5 0.5 0
0.55 0.5 0
0.8 0.45 0
0.85 0.45 0
0.8 0.5 0
0.85 0.5 0
0.85 0.45 0
0.9 0.45 0
0.85 0.5 0
0.9 0.5 0
0.9 0.45 0
0.95 0.45 0
0.9 0.5 0
0.95 0.5 0
0.95 0.45 0
1 0.45 0
0.95 0.5 0
1 0.5 0
1.15 0.45 0
1.2 0.45 0
1.15 0.5 0
1.2 0.5 0
1.2 0.45 0
1.25 0.45 0
1.2 0.5 0
1.25 0.5 0
1.25 0.45 0
1.3 0.45 0
1.25 0.5 0
1.3 0.5 0
1.3 0.45 0
1.35 0.45 0
1.3 0.5 0
1.35 0.5 0
1.35 0.45 0
1.4 0.45 0
1.35 0.5 0
1.4 0.5 0
1.4 0.45 0
1.45 0.45 0
1.4 0.5 0
1.45 0.5 0
1.45 0.45 0
1.5 0.45 0
1.45 0.5 0
1.5 0.5 0
1.5 0.45 0
1.55 0.45 0
1.5 0.5 0
1.55 0.5 0
1.55 0.45 0
1.6 0.45 0
1.55 0.5 0
1.6 0.5 0
1.6 0.45 0
1.65 0.45 0
1.6 0.5 0
1.65 0.5 0
1.9 0.45 0
1.95 0.45 0
1.9 0.5 0
1.95 0.5 0
1.95 0.45 0
2 0.45 0
1.95 0.5 0
2 0.5 0
0 0.5 0
0.05 0.5 0
0 0.55 0
0.05 0.55 0
0.05 0.5 0
0.1 0.5 0
0.05 0.55 0
0.1 0.55 0
0.1 0.5 0
0.15 0.5 0
0.1 0.55 0
0.15 0.55 0
0.15 0.5 0
0.2 0.5 0
0.15 0.55 0
0.2 0.55 0
0.2 0.5 0
0.25 0.5 0
0.2 0.55 0
0.25 0.55 0
0.25 0.5 0
0.3 0.5 0
0.25 0.55 0
0.3 0.55 0
0.3 0.5 0
0.35 0.5 0
0.3 0.55 0
0.35 0.55 0
0.35 0.5 0
0.4 0.5 0
0.35 0.55 0
0.4 0.55 0
0.4 0.5 0
0.45 0.5 0
0.4 0.55 0
0.45 0.55 0
0.45 0.5 0
0.5 0.5 0
0.45 0.55 0
0.5 0.55 0
0.5 0.5 0
0.55 0.5 0
0.5 0.55 0
0.55 0.55 0
0.8 0.5 0
0.85 0.5 0
0.8 0.55 0
0.85 0.55 0
0.85 0.5 0
0.9 0.5 0
0.85 0.55 0
0.9 0.55 0
0.9 0.5 0
0.95 0.5 0
0.9 0.55 0
0.95 0.55 0
0.95 0.5 0
1 0.5 0
0.95 0.55 0
1 0.55 0
1.15 0.5 0
1.2 0.5 0
1.15 0.55 0
1.2 0.55 0
1.2 0.5 0
1.25 0.5 0
1.2 0.55 0
1.25 0.55 0
1.25 0.5 0
1.3 0.5 0
1.25 0.55 0
1.3 0.55 0
1.3 0.5 0
1.35 0.5 0
1.3 0.55 0
1.35 0.55 0
1.35 0.5 0
1.4 0.5 0
1.35 0.55 0
1.4 0.55 0
1.4 0.5 0
1.45 0.5 0
1.4 0.55 0
1.45 0.55 0
1.45 0.5 0
1.5 0.5 0
1.45 0.55 0
1.5 0.55 0
1.5 0.5 0
1.55 0.5 0
1.5 0.55 0
1.55 0.55 0
1.55 0.5 0
1.6 0.5 0
1.55 0.55 0
1.6 0.55 0
1.6 0.5 0
1.65 0.5 0
1.6 0.55 0
1.65 0.55 0
1.9 0.5 0
1.95 0.5 0
1.9 0.55 0
1.95 0.55 0
1.95 0.5 0
2 0.5 0
1.95 0.55 0
2 0.55 0
0 0.55 0
0.05 0.55 0
0 0.6 0
0.05 0.6 0
0.05 0.55 0
0.1 0.55 0
0.05 0.6 0
0.1 0.6 0
0.1 0.55 0
0.15 0.55 0
0.1 0.6 0
0.15 0.6 0
0.15 0.55 0
0.2 0.55 0
0.15 0.6 0
0.2 0.6 0
0.2 0.55 0
0.25 0.55 0
0.2 0.6 0
0.25 0.6 0
0.25 0.55 0
0.3 0.55 0
0.25 0.6 0
0.3 0.6 0
0.3 0.55 0
0.35 0.55 0
0.3 0.6 0
0.35 0.6 0
0.35 0.55 0
0.4 0.55 0
0.35 0.6 0
0.4 0.6 0
0.4 0.55 0
0.45 0.55 0
0.4 0.6 0
0.45 0.6 0
0.75 0.55 0
0.8 0.55 0
0.75 0.6 0
0.8 0.6 0
0.8 0.55 0
0.85 0.55 0
0.8 0.6 0
0.85 0.6 0
0.85 0.55 0
0.9 0.55 0
0.85 0.6 0
0.9 0.6 0
1.15 0.55 0
1.2 0.55 0
1.15 0.6 0
1.2 0.6 0
1.2 0.55 0
1.25 0.55 0
1.2 0.6 0
1.25 0.6 0
1.25 0.55 0
1.3 0.55 0
1.25 0.6 0
1.3 0.6 0
1.3 0.55 0
1.35 0.55 0
1.3 0.6 0
1.35 0.6 0
1.35 0.55 0
1.4 0.55 0
1.35 0.6 0
1.4 0.6 0
1.4 0.55 0
1.45 0.55 0
1.4 0.6 0
1.45 0.6 0
1.45 0.55 0
1.5 0.55 0
1.45 0.6 0
1.5 0.6 0
1.5 0.55 0
1.55 0.55 0
1.5 0.6 0
1.55 0.6 0
1.55 0.55 0
1.6 0.55 0
1.55 0.6 0
1.6 0.6 0
1.85 0.55 0
1.9 0.55 0
1.85 0.6 0
1.9 0.6 0
0 0.6 0
0.05 0.6 0
0 0.65 0
0.05 0.65 0
0.05 0.6 0
0.1 0.6 0
0.05 0.65 0
0.1 0.65 0
0.1 0.6 0
0.15 0.6 0
[...]
POINT_DATA 18152
SCALARS x_displacement double 1
LOOKUP_TABLE default
0 1.33661 0 0.780616 1.33661 2.35269 0.780616 1.6063 2.35269 3.20302 1.6063 2.33786 3.20302 3.93571 2.33786 2.98943 3.93571 4.58171 2.98943 3.57536 4.58171 5.17376 3.57536 4.11007 5.17376 5.74372 4.11007 4.61316 5.74372 6.31275 4.61316 5.10474 6.31275 6.88409 5.10474 5.59418 6.88409 7.45495 5.59418 6.08159 7.45495 8.02579 6.08159 6.5704 8.02579 8.59616 6.5704 7.06254 8.59616 9.1515 7.06254 7.56481 9.1515 9.6745 7.56481 8.07414 9.6745 10.1697 8.07414 8.59223 10.1697 10.6575 8.59223 9.11865 10.6575 11.1476 9.11865 9.64586 11.1476 11.64 9.64586 10.1731 11.64 12.134 10.1731 10.7007 12.134 12.6338 10.7007 11.224 12.6338 13.1611 11.224 11.7338 13.1611 13.7434 11.7338 12.2282 13.7434 14.3781 12.2282 12.7039 14.3781 14.9925 12.7039 13.1619 14.9925 15.4636 13.1619 13.561 16.9512 17.4547 14.7021 15.0546 17.4547 17.8114 15.0546 15.4932 17.8114 18.1275 15.4932 15.853 18.1275 18.3974 15.853 16.1389 18.3974 18.6038 16.1389 16.3669 18.6038 18.7425 16.3669 16.5328 18.7425 18.8156 16.5328 16.6487 18.8156 18.8385 16.6487 16.7171 18.8385 18.8303 16.7171 16.7502 18.8303 18.8152 16.7502 16.7609 18.8152 18.8096 16.7609 16.764 0 0.780616 0 0.533651 0.780616 1.6063 0.533651 1.09477 1.6063 2.33786 1.09477 1.65978 2.33786 2.98943 1.65978 2.19022 2.98943 3.57536 2.19022 2.68333 3.57536 4.11007 2.68333 3.13064 4.11007 4.61316 3.13064 3.52349 4.61316 5.10474 3.52349 3.90304 12.7039 13.1619 11.1337 11.4751 13.1619 13.561 11.4751 11.785 13.561 13.8993 11.785 12.0443 15.4932 15.853 13.3865 13.7274 15.853 16.1389 13.7274 14.0209 16.1389 16.3669 14.0209 14.2467 16.3669 16.5328 14.2467 14.4482 16.5328 16.6487 14.4482 14.5838 16.6487 16.7171 14.5838 14.6747 16.7171 16.7502 14.6747 14.7227 16.7502 16.7609 14.7227 14.7384 16.7609 16.764 14.7384 14.7429 1.65978 2.19022 1.0619 1.48143 2.19022 2.68333 1.48143 1.88831 2.68333 3.13064 1.88831 2.26201 3.13064 3.52349 2.26201 2.58245 14.0209 14.2467 11.8779 12.2767 14.2467 14.4482 12.2767 12.4593 14.4482 14.5838 12.4593 12.6131 14.5838 14.6747 12.6131 12.7206 14.6747 14.7227 12.7206 12.773 14.7227 14.7384 12.773 12.7868 14.7384 14.7429 12.7868 12.7854 1.88831 2.26201 1.15459 1.48867 2.26201 2.58245 1.48867 1.80885 2.58245 2.84675 1.80885 2.13205 4.3256 4.44789 2.91015 2.68135 4.44789 5.48903 2.68135 3.44188 5.48903 6.0363 3.44188 4.58305 6.0363 6.6434 4.58305 5.1478 6.6434 7.24676 5.1478 5.72456 7.24676 7.78204 5.72456 6.54274 7.78204 8.65057 6.54274 8.20454 8.65057 9.14221 8.20454 7.10968 12.4593 12.6131 10.5521 10.7388 12.6131 12.7206 10.7388 10.8478 12.7206 12.773 10.8478 10.917 12.773 12.7868 10.917 10.9324 12.7868 12.7854 10.9324 10.918 1.80885 2.13205 1.08786 1.40981 2.13205 2.44001 1.40981 1.72788 4.58305 5.1478 4.17619 4.64944 5.1478 5.72456 4.64944 5.79221 5.72456 6.54274 5.79221 5.95272 6.54274 8.20454 5.95272 6.2354 10.7388 10.8478 8.865 9.05622 10.8478 10.917 9.05622 9.16789 10.917 10.9324 9.16789 9.19368 10.9324 10.918 9.19368 9.15969 0 -0.0580459 0 0.0233253 -0.0580459 -0.0350797 0.0233253 0.00301546 -0.0350797 -0.0653486 0.00301546 -0.00490992 1.72788 2.04241 1.01685 1.3329 2.04241 2.35861 1.3329 1.64882 5.79221 5.95272 4.05523 4.80283 5.95272 6.2354 4.80283 5.43743 6.45536 6.58573 5.1985 5.17807 6.58573 6.56077 5.17807 5.25634 9.16789 9.19368 7.52414 7.58307 9.19368 9.15969 7.58307 7.50373 0 0.0233253 0 0.0201942 0.0233253 0.00301546 0.0201942 0.0251174 0.00301546 -0.00490992 0.0251174 0.0332971 -0.00490992 0.0548739 0.0332971 0.0499115 0.0548739 0.133332 0.0499115 0.0679345 1.96572 2.28701 1.23997 1.53983 5.20816 5.1985 3.72337 3.77954 5.1985 5.17807 3.77954 3.85256 5.17807 5.25634 3.85256 3.9063 5.25634 5.29086 3.9063 3.95868 0 0.0201942 0 0.0162425 0.0201942 0.0251174 0.0162425 0.0240806 0.0251174 0.0332971 0.0240806 0.0269351 0.0332971 0.0499115 0.0269351 0.0248514 0.0499115 0.0679345 0.0248514 0.013349 0.0679345 0.085789 0.013349 -0.0141201 0.085789 0.0852928 -0.0141201 -0.0864424 1.83322 2.13424 1.06095 1.31082 2.13424 2.44936 1.31082 1.56929 3.72337 3.77954 2.37444 2.46262 3.77954 3.85256 2.46262 2.53308 3.85256 3.9063 2.53308 2.59686 3.9063 3.95868 2.59686 2.65987 3.95868 4.08186 2.65987 2.69539 4.08186 4.74182 2.69539 2.47606 0 0.0162425 0 0.00881935 0.0162425 0.0240806 0.00881935 0.0130295 0.0240806 0.0269351 0.0130295 0.0129196 0.0269351 0.0248514 0.0129196 0.00758374 0.0248514 0.013349 0.00758374 -0.00478862 0.013349 -0.0141201 -0.00478862 -0.0247002 -0.0141201 -0.0864424 -0.0247002 -0.0336053 -0.0864424 -0.0902821 -0.0336053 -0.0490485 -0.0902821 -0.130925 -0.0490485 -0.0366971 1.31082 1.56929 0.560908 0.742784 1.56929 1.81566 0.742784 0.887273 1.81566 2.03531 0.887273 0.99272 2.28465 2.37444 0.951848 1.12016 2.37444 2.46262 1.12016 1.20511 2.46262 2.53308 1.20511 1.25576 2.53308 2.59686 1.25576 1.29456 2.59686 2.65987 1.29456 1.31567 2.65987 2.69539 1.31567 1.28488 2.69539 2.47606 1.28488 1.28575 2.47606 2.55442 1.28575 1.25274 2.55442 2.43737 1.25274 1.2066 3.66147 3.94008 1.75052 1.96395 0 0.00881935 0 -2.28639e-10 0.00881935 0.0130295 -2.28639e-10 -4.23936e-10 0.0130295 0.0129196 -4.23936e-10 -5.42845e-10 0.0129196 0.00758374 -5.42845e-10 -5.09671e-10 0.00758374 -0.00478862 -5.09671e-10 -2.06749e-10 -0.00478862 -0.0247002 -2.06749e-10 2.28337e-10 -0.0247002 -0.0336053 2.28337e-10 -3.08441e-10 -0.0336053 -0.0490485 -3.08441e-10 -2.45152e-09 -0.0490485 -0.0366971 -2.45152e-09 -3.96944e-09 -0.0366971 0.0238431 -3.96944e-09 -3.50682e-09 0.0238431 0.28091 -3.50682e-09 -1.92667e-09 0.742784 0.887273 3.28942e-13 2.06514e-13 0.887273 0.99272 2.06514e-13 1.14664e-13 0.99272 1.04181 1.14664e-13 8.97683e-14 1.04181 1.02435 8.97683e-14 -2.09461e-14 0.951848 1.12016 -1.87779e-10 -3.07603e-10 1.12016 1.20511 -3.07603e-10 -4.73697e-12 1.20511 1.25576 -4.73697e-12 1.41616e-10 1.25576 1.29456 1.41616e-10 -7.70028e-11 1.29456 1.31567 -7.70028e-11 -1.12623e-09 1.31567 1.28488 -1.12623e-09 -1.17606e-09 1.28488 1.28575 -1.17606e-09 -8.80017e-10 1.28575 1.25274 -8.80017e-10 1.50238e-09 1.25274 1.2066 1.50238e-09 2.52279e-09 1.2066 1.18043 2.52279e-09 2.22457e-09 1.96395 2.18489 1.52169e-12 1.40899e-12 2.18489 2.19548 1.40899e-12 1.81214e-12 0 -2.28639e-10 0 -0.00881935 -2.28639e-10 -4.23936e-10 -0.00881935 -0.0130295 -4.23936e-10 -5.42845e-10 -0.0130295 -0.0129196 -5.42845e-10 -5.09671e-10 -0.0129196 -0.00758374 -5.09671e-10 -2.06749e-10 -0.00758374 0.00478862 -2.06749e-10 2.28337e-10 0.00478862 0.0247002 2.28337e-10 -3.08441e-10 0.0247002 0.0336053 -3.08441e-10 -2.45152e-09 0.0336053 0.0490485 -2.45152e-09 -3.96944e-09 0.0490485 0.0366971 -3.96944e-09 -3.50682e-09 0.0366971 -0.0238431 -3.50682e-09 -1.92667e-09 -0.0238431 -0.28091 3.28942e-13 2.06514e-13 -0.742784 -0.887273 2.06514e-13 1.14664e-13 -0.887273 -0.99272 1.14664e-13 8.97683e-14 -0.99272 -1.04181 8.97683e-14 -2.09461e-14 -1.04181 -1.02435 -1.87779e-10 -3.07603e-10 -0.951848 -1.12016 -3.07603e-10 -4.73697e-12 -1.12016 -1.20511 -4.73697e-12 1.41616e-10 -1.20511 -1.25576 1.41616e-10 -7.70028e-11 -1.25576 -1.29456 -7.70028e-11 -1.12623e-09 -1.29456 -1.31567 -1.12623e-09 -1.17606e-09 -1.31567 -1.28488 -1.17606e-09 -8.80017e-10 -1.28488 -1.28575 -8.80017e-10 1.50238e-09 -1.28575 -1.25274 1.50238e-09 2.52279e-09 -1.25274 -1.2066 2.52279e-09 2.22457e-09 -1.2066 -1.18043 1.52169e-12 1.40899e-12 -1.96395 -2.18489 1.40899e-12 1.81214e-12 -2.18489 -2.19548 0 -0.00881935 0 -0.0162425 -0.00881935 -0.0130295 -0.0162425 -0.0240806 -0.0130295 -0.0129196 -0.0240806 -0.0269351 -0.0129196 -0.00758374 -0.0269351 -0.0248514 -0.00758374 0.00478862 -0.0248514 -0.013349 0.00478862 0.0247002 -0.013349 0.0141201 0.0247002 0.0336053 0.0141201 0.0864424 0.0336053 0.0490485 0.0864424 0.0902821 0.0490485 0.0366971 0.0902821 0.130925 -0.560908 -0.742784 -1.31082 -1.56929 -0.742784 -0.887273 -1.56929 -1.81566 -0.887273 -0.99272 -1.81566 -2.03531 -0.951848 -1.12016 -2.28465 -2.37444 -1.12016 -1.20511 -2.37444 -2.46262 -1.20511 -1.25576 -2.46262 -2.53308 -1.25576 -1.29456 -2.53308 -2.59686 -1.29456 -1.31567 -2.59686 -2.65987 -1.31567 -1.28488 -2.65987 -2.69539 -1.28488 -1.28575 -2.69539 -2.47606 -1.28575 -1.25274 -2.47606 -2.55442 -1.25274 -1.2066 -2.55442 -2.43737 -1.75052 -1.96395 -3.66147 -3.94008 0 -0.0162425 0 -0.0201942 -0.0162425 -0.0240806 -0.0201942 -0.0251174 -0.0240806 -0.0269351 -0.0251174 -0.0332971 -0.0269351 -0.0248514 -0.0332971 -0.0499115 -0.0248514 -0.013349 -0.0499115 -0.0679345 -0.013349 0.0141201 -0.0679345 -0.085789 0.0141201 0.0864424 -0.085789 -0.0852928 -1.06095 -1.31082 -1.83322 -2.13424 -1.31082 -1.56929 -2.13424 -2.44936 -2.37444 -2.46262 -3.72337 -3.77954 -2.46262 -2.53308 -3.77954 -3.85256 -2.53308 -2.59686 -3.85256 -3.9063 -2.59686 -2.65987 -3.9063 -3.95868 -2.65987 -2.69539 -3.95868 -4.08186 -2.69539 -2.47606 -4.08186 -4.74182 0 -0.0201942 0 -0.0233253 -0.0201942 -0.0251174 -0.0233253 -0.00301546 -0.0251174 -0.0332971 -0.00301546 0.00490992 -0.0332971 -0.0499115 0.00490992 -0.0548739 -0.0499115 -0.0679345 -0.0548739 -0.133332 -1.23997 -1.53983 -1.96572 -2.28701 -3.72337 -3.77954 -5.20816 -5.1985 -3.77954 -3.85256 -5.1985 -5.17807 -3.85256 -3.9063 -5.17807 -5.25634 -3.9063 -3.95868 -5.25634 -5.29086 0 -0.0233253 0 0.0580459 -0.0233253 -0.00301546 0.0580459 0.0350797 -0.00301546 0.00490992 0.0350797 0.0653486 -1.01685 -1.3329 -1.72788 -2.04241 -1.3329 -1.64882 -2.04241 -2.35861 -4.05523 -4.80283 -5.79221 -5.95272 -4.80283 -5.43743 -5.95272 -6.2354 -5.1985 -5.17807 -6.45536 -6.58573 -5.17807 -5.25634 -6.58573 -6.56077 -7.52414 -7.58307 -9.16789 -9.19368 -7.58307 -7.50373 -9.19368 -9.15969 -1.08786 -1.40981 -1.80885 -2.13205 -1.40981 -1.72788 -2.13205 -2.44001 -4.17619 -4.64944 -4.58305 -5.1478 -4.64944 -5.79221 -5.1478 -5.72456 -5.79221 -5.95272 -5.72456 -6.54274 -5.95272 -6.2354 -6.54274 -8.20454 -8.865 -9.05622 -10.7388 -10.8478 -9.05622 -9.16789 -10.8478 -10.917 -9.16789 -9.19368 -10.917 -10.9324 -9.19368 -9.15969 -10.9324 -10.918 -1.15459 -1.48867 -1.88831 -2.26201 -1.48867 -1.80885 -2.26201 -2.58245 -1.80885 -2.13205 -2.58245 -2.84675 -2.91015 -2.68135 -4.3256 -4.44789 -2.68135 -3.44188 -4.44789 -5.48903 -3.44188 -4.58305 -5.48903 -6.0363 -4.58305 -5.1478 -6.0363 -6.6434 -5.1478 -5.72456 -6.6434 -7.24676 -5.72456 -6.54274 -7.24676 -7.78204 -6.54274 -8.20454 -7.78204 -8.65057 -8.20454 -7.10968 -8.65057 -9.14221 -10.5521 -10.7388 -12.4593 -12.6131 -10.7388 -10.8478 -12.6131 -12.7206 -10.8478 -10.917 -12.7206 -12.773 -10.917 -10.9324 -12.773 -12.7868 -10.9324 -10.918 -12.7868 -12.7854 -1.0619 -1.48143 -1.65978 -2.19022 -1.48143 -1.88831 -2.19022 -2.68333 -1.88831 -2.26201 -2.68333 -3.13064 -2.26201 -2.58245 -3.13064 -3.52349 -11.8779 -12.2767 -14.0209 -14.2467 -12.2767 -12.4593 -14.2467 -14.4482 -12.4593 -12.6131 -14.4482 -14.5838 -12.6131 -12.7206 -14.5838 -14.6747 -12.7206 -12.773 -14.6747 -14.7227 -12.773 -12.7868 -14.7227 -14.7384 -12.7868 -12.7854 -14.7384 -14.7429 0 -0.533651 0 -0.780616 -0.533651 -1.09477 -0.780616 -1.6063 -1.09477 -1.65978 -1.6063 -2.33786 -1.65978 -2.19022 -2.33786 -2.98943 -2.19022 -2.68333 -2.98943 -3.57536 -2.68333 -3.13064 -3.57536 -4.11007 -3.13064 -3.52349 -4.11007 -4.61316 -3.52349 -3.90304 -4.61316 -5.10474 -11.1337 -11.4751 -12.7039 -13.1619 -11.4751 -11.785 -13.1619 -13.561 -11.785 -12.0443 -13.561 -13.8993 -13.3865 -13.7274 -15.4932 -15.853 -13.7274 -14.0209 -15.853 -16.1389 -14.0209 -14.2467 -16.1389 -16.3669 -14.2467 -14.4482 -16.3669 -16.5328 -14.4482 -14.5838 -16.5328 -16.6487 -14.5838 -14.6747 -16.6487 -16.7171 -14.6747 -14.7227 -16.7171 -16.7502 -14.7227 -14.7384 -16.7502 -16.7609 -14.7384 -14.7429 -16.7609 -16.764 0 -0.780616 0 -1.33661 -0.780616 -1.6063 -1.33661 -2.35269 -1.6063 -2.33786 -2.35269 -3.20302 -2.33786 -2.98943 -3.20302 -3.93571 -2.98943 -3.57536 -3.93571 -4.58171 -3.57536 -4.11007 -4.58171 -5.17376 -4.11007 -4.61316 -5.17376 -5.74372 -4.61316 -5.10474 -5.74372 -6.31275 -5.10474 -5.59418 -6.31275 -6.88409 -5.59418 -6.08159 -6.88409 -7.45495 -6.08159 -6.5704 -7.45495 -8.02579 -6.5704 -7.06254 -8.02579 -8.59616 -7.06254 -7.56481 -8.59616 -9.1515 -7.56481 -8.07414 -9.1515 -9.6745 -8.07414 -8.59223 -9.6745 -10.1697 -8.59223 -9.11865 -10.1697 -10.6575 -9.11865 -9.64586 -10.6575 -11.1476 -9.64586 -10.1731 -11.1476 -11.64 -10.1731 -10.7007 -11.64 -12.134 -10.7007 -11.224 -12.134 -12.6338 -11.224 -11.7338 -12.6338 -13.1611 -11.7338 -12.2282 -13.1611 -13.7434 -12.2282 -12.7039 -13.7434 -14.3781 -12.7039 -13.1619 -14.3781 -14.9925 -13.1619 -13.561 -14.9925 -15.4636 -14.7021 -15.0546 -16.9512 -17.4547 -15.0546 -15.4932 -17.4547 -17.8114 -15.4932 -15.853 -17.8114 -18.1275 -15.853 -16.1389 -18.1275 -18.3974 -16.1389 -16.3669 -18.3974 -18.6038 -16.3669 -16.5328 -18.6038 -18.7425 -16.5328 -16.6487 -18.7425 -18.8156 -16.6487 -16.7171 -18.8156 -18.8385 -16.7171 -16.7502 -18.8385 -18.8303 -16.7502 -16.7609 -18.8303 -18.8152 -16.7609 -16.764 -18.8152 -18.8096 16.6763 16.0151 15.1773 15.3984 5.59418 5.83788 4.9482 5.17067 5.83788 6.08159 5.17067 5.39451 4.9482 5.17067 4.2979 4.50265 5.17067 5.39451 4.50265 4.70762 6.08159 6.32599 5.39451 5.61875 6.32599 6.5704 5.61875 5.84295 5.39451 5.61875 4.70762 4.91226 5.61875 5.84295 4.91226 5.11657 6.5704 6.81647 5.84295 6.06796 6.81647 7.06254 6.06796 6.29474 7.06254 7.31367 6.29474 6.52547 7.31367 7.56481 6.52547 6.76579 7.56481 7.81947 6.76579 7.01316 7.81947 8.07414 7.01316 7.26923 8.07414 8.33319 7.26923 7.5328 8.33319 8.59223 7.5328 7.80374 8.59223 8.85544 7.80374 8.07642 8.85544 9.11865 8.07642 8.34939 9.11865 9.38225 8.34939 8.62213 9.38225 9.64586 8.62213 8.8946 9.64586 9.90946 8.8946 9.16687 9.90946 10.1731 9.16687 9.43891 10.1731 10.4369 9.43891 9.71079 10.4369 10.7007 9.71079 9.98231 10.7007 10.9624 9.98231 10.2533 10.9624 11.224 10.2533 10.5203 11.224 11.4789 10.5203 10.7795 11.4789 11.7338 10.7795 11.026 11.7338 11.981 11.026 11.2644 11.981 12.2282 11.2644 11.4822 13.2326 13.3631 12.2906 12.4151 14.7021 14.8783 13.5983 13.5595 14.8783 15.0546 13.5595 13.9752 0 0.266825 0 0.19995 0.266825 0.533651 0.19995 0.415442 0.533651 0.814212 0.415442 0.642054 0.814212 1.09477 0.642054 0.879076 0.415442 0.642054 0.281373 0.472202 0.642054 0.879076 0.472202 0.653974 5.08601 5.23484 4.3256 4.38674 5.23484 5.54321 4.38674 4.44789 5.54321 5.93794 4.44789 4.96846 5.93794 6.22872 4.96846 5.48903 6.22872 6.52243 5.48903 5.76267 6.52243 6.81285 5.76267 6.0363 6.81285 7.10336 6.0363 6.33985 7.10336 7.39363 6.33985 6.6434 7.39363 7.68328 6.6434 6.94508 7.68328 7.97181 6.94508 7.24676 7.97181 8.25922 7.24676 7.5144 8.25922 8.54589 7.5144 7.78204 8.54589 8.83228 7.78204 8.2163 8.83228 9.11619 8.2163 8.65057 9.11619 9.54843 8.65057 8.89639 9.54843 9.77062 8.89639 9.14221 9.77062 9.9065 9.14221 9.15475 10.9533 11.1337 10.3056 10.4319 11.785 11.9146 10.8602 10.9684 11.9146 12.0443 10.9684 11.085 13.3865 13.557 12.4005 12.6535 13.557 13.7274 12.6535 12.6906 12.6535 12.6906 11.4376 11.4416 0 0.15514 0 -0.208282 0.853911 1.0619 0.583185 0.76882 1.0619 1.27166 0.76882 0.953177 1.27166 1.48143 0.953177 1.1424 3.60358 3.94052 3.22372 3.13335 3.94052 3.98054 3.13335 3.41684 3.98054 4.11368 3.41684 3.57129 9.14221 9.15475 8.12595 8.63636 8.12595 8.63636 7.10968 7.96639 9.70148 9.73573 8.97086 8.9929 8.97086 8.9929 8.23091 8.23978 10.3811 10.5189 9.41863 9.56378 10.5189 10.6568 9.56378 9.70459 10.2612 10.3934 9.31341 9.45374 10.3934 10.5305 9.45374 9.59417 12.2841 11.8779 10.8937 11.0494 0.100021 0.342812 -0.0350797 -0.0502142 0.342812 0.351613 -0.0502142 -0.0653486 1.15459 1.32163 0.791482 0.954229 1.32163 1.48867 0.954229 1.11754 2.39376 2.54432 2.04241 2.20051 2.54432 2.70356 2.20051 2.35861 2.91015 2.79575 3.17462 3.4284 2.79575 2.68135 3.4284 3.97157 7.37043 7.42017 6.6246 6.45536 7.15178 7.63958 6.58573 6.57325 7.63958 7.64842 6.57325 6.56077 8.89857 9.03785 7.95215 8.08863 8.92393 9.071 7.97791 8.11789 10.4603 10.5521 9.54104 9.74382 -0.104091 0.131124 0.0548739 0.094103 0.131124 0.285699 0.094103 0.133332 1.08786 1.24883 0.73894 0.902147 1.24883 1.40981 0.902147 1.05607 2.32989 2.49259 1.96572 2.12636 2.49259 2.65748 2.12636 2.28701 4.17143 4.17619 3.35243 3.36713 4.17619 4.41281 3.36713 3.83205 4.41281 4.64944 3.83205 4.34851 6.2354 6.57757 5.83642 6.00391 5.83642 6.00391 5.43743 5.40412 6.77716 6.77407 6.04598 6.04798 6.04598 6.04798 5.3243 5.32741 5.83289 6.16465 5.29086 5.04869 7.5588 7.69713 6.60494 6.74378 7.58293 7.71678 6.63687 6.77732 8.865 8.96061 7.96693 8.10689 8.96061 9.05622 8.10689 8.20096 0.162286 0.20089 0.085789 0.0855409 0.20089 0.254758 0.0855409 0.0852928 1.01685 1.17488 0.652534 0.814176 1.17488 1.3329 0.814176 0.968435 2.6141 2.78276 2.22603 2.38893 2.78276 2.977 2.38893 2.55773 2.22603 2.38893 1.83322 1.98373 2.38893 2.55773 1.98373 2.13424 2.55773 2.72045 2.13424 2.2918 2.72045 2.89581 2.2918 2.44936 4.05523 4.42903 3.54697 3.44538 4.42903 4.80283 3.44538 4.32708 5.24368 5.20816 4.3233 4.46577 4.3233 4.46577 3.78368 3.72337 4.37895 4.89021 4.74182 3.15479 6.08184 6.2192 5.1263 5.27422 6.2192 6.3582 5.27422 5.41249 5.97537 6.11429 5.02997 5.16957 6.11429 6.26688 5.16957 5.31043 7.52414 7.5536 6.71125 6.78801 7.5536 7.58307 6.78801 6.83493 0.246815 0.161343 -0.450402 -0.132476 -0.450402 -0.132476 -0.0902821 -0.110604 -0.132476 0.256559 -0.110604 -0.130925 0.256559 0.282379 -0.130925 -0.200509 1.08764 1.23997 0.731682 0.876362 2.76256 2.92315 2.28961 2.42919 2.28961 2.42919 1.81566 1.92548 2.42919 2.56148 1.92548 2.03531 2.56148 2.70581 2.03531 2.13885 3.86518 3.86298 3.12658 3.12673 3.12658 3.12673 2.38996 2.39863 4.09041 4.01606 2.80293 3.07962 2.80293 3.07962 2.55442 2.49589 3.07962 3.36999 2.49589 2.43737 4.637 4.77963 3.66147 3.80077 4.77963 4.93018 3.80077 3.94008 6.10329 6.06058 5.25266 5.26009 -0.24089 0.132682 0.28091 -0.783392 0.933307 1.06095 0.574342 0.694251 2.31919 2.28465 1.47078 1.61825 1.47078 1.61825 0.902263 0.951848 1.65851 1.88257 1.18043 1.15026 3.27675 3.40516 2.34772 2.46212 3.16221 3.23876 2.18489 2.19019 3.23876 3.26305 2.19019 2.19548 -0.414536 0.0917114 -1.74058e-11 6.76201e-13 0.0917114 0.113585 6.76201e-13 -9.44787e-14 1.02435 1.02055 0.512176 0.470392 0.512176 0.470392 -2.09461e-14 -1.40875e-13 0.350012 0.675893 3.98341e-10 4.58349e-11 1.65283 1.75052 0.770452 0.845105 -1.74058e-11 6.76201e-13 0.414536 -0.0917114 6.76201e-13 -9.44787e-14 -0.0917114 -0.113585 -2.09461e-14 -1.40875e-13 -0.512176 -0.470392 -0.512176 -0.470392 -1.02435 -1.02055 3.98341e-10 4.58349e-11 -0.350012 -0.675893 -0.770452 -0.845105 -1.65283 -1.75052 -0.28091 0.783392 0.24089 -0.132682 -0.574342 -0.694251 -0.933307 -1.06095 -0.902263 -0.951848 -1.47078 -1.61825 -1.47078 -1.61825 -2.31919 -2.28465 -1.18043 -1.15026 -1.65851 -1.88257 -2.34772 -2.46212 -3.27675 -3.40516 -2.18489 -2.19019 -3.16221 -3.23876 -2.19019 -2.19548 -3.23876 -3.26305 0.0902821 0.110604 0.450402 0.132476 0.110604 0.130925 0.132476 -0.256559 0.450402 0.132476 -0.246815 -0.161343 0.130925 0.200509 -0.256559 -0.282379 -0.731682 -0.876362 -1.08764 -1.23997 -1.81566 -1.92548 -2.28961 -2.42919 -1.92548 -2.03531 -2.42919 -2.56148 -2.28961 -2.42919 -2.76256 -2.92315 -2.03531 -2.13885 -2.56148 -2.70581 -2.38996 -2.39863 -3.12658 -3.12673 -3.12658 -3.12673 -3.86518 -3.86298 -2.55442 -2.49589 -2.80293 -3.07962 -2.49589 -2.43737 -3.07962 -3.36999 -2.80293 -3.07962 -4.09041 -4.01606 -3.66147 -3.80077 -4.637 -4.77963 -3.80077 -3.94008 -4.77963 -4.93018 -5.25266 -5.26009 -6.10329 -6.06058 -0.085789 -0.0855409 -0.162286 -0.20089 -0.0855409 -0.0852928 -0.20089 -0.254758 -0.652534 -0.814176 -1.01685 -1.17488 -0.814176 -0.968435 -1.17488 -1.3329 -1.83322 -1.98373 -2.22603 -2.38893 -1.98373 -2.13424 -2.38893 -2.55773 -2.22603 -2.38893 -2.6141 -2.78276 -2.38893 -2.55773 -2.78276 -2.977 -2.13424 -2.2918 -2.55773 -2.72045 -2.2918 -2.44936 -2.72045 -2.89581 -3.54697 -3.44538 -4.05523 -4.42903 -3.44538 -4.32708 -4.42903 -4.80283 -3.78368 -3.72337 -4.3233 -4.46577 -4.3233 -4.46577 -5.24368 -5.20816 -4.74182 -3.15479 -4.37895 -4.89021 -5.1263 -5.27422 -6.08184 -6.2192 -5.27422 -5.41249 -6.2192 -6.3582 -5.02997 -5.16957 -5.97537 -6.11429 -5.16957 -5.31043 -6.11429 -6.26688 -6.71125 -6.78801 -7.52414 -7.5536 -6.78801 -6.83493 -7.5536 -7.58307 -