# vtk DataFile Version 3.0
#This file was generated by the deal.II library on 2016/2/10 at 17:07:27
ASCII
DATASET UNSTRUCTURED_GRID

POINTS 18152 double
0 0 0
0.05 0 0
0 0.05 0
0.05 0.05 0
0.05 0 0
0.1 0 0
0.05 0.05 0
0.1 0.05 0
0.1 0 0
0.15 0 0
0.1 0.05 0
0.15 0.05 0
0.15 0 0
0.2 0 0
0.15 0.05 0
0.2 0.05 0
0.2 0 0
0.25 0 0
0.2 0.05 0
0.25 0.05 0
0.25 0 0
0.3 0 0
0.25 0.05 0
0.3 0.05 0
0.3 0 0
0.35 0 0
0.3 0.05 0
0.35 0.05 0
0.35 0 0
0.4 0 0
0.35 0.05 0
0.4 0.05 0
0.4 0 0
0.45 0 0
0.4 0.05 0
0.45 0.05 0
0.45 0 0
0.5 0 0
0.45 0.05 0
0.5 0.05 0
0.5 0 0
0.55 0 0
0.5 0.05 0
0.55 0.05 0
0.55 0 0
0.6 0 0
0.55 0.05 0
0.6 0.05 0
0.6 0 0
0.65 0 0
0.6 0.05 0
0.65 0.05 0
0.65 0 0
0.7 0 0
0.65 0.05 0
0.7 0.05 0
0.7 0 0
0.75 0 0
0.7 0.05 0
0.75 0.05 0
0.75 0 0
0.8 0 0
0.75 0.05 0
0.8 0.05 0
0.8 0 0
0.85 0 0
0.8 0.05 0
0.85 0.05 0
0.85 0 0
0.9 0 0
0.85 0.05 0
0.9 0.05 0
0.9 0 0
0.95 0 0
0.9 0.05 0
0.95 0.05 0
0.95 0 0
1 0 0
0.95 0.05 0
1 0.05 0
1 0 0
1.05 0 0
1 0.05 0
1.05 0.05 0
1.05 0 0
1.1 0 0
1.05 0.05 0
1.1 0.05 0
1.1 0 0
1.15 0 0
1.1 0.05 0
1.15 0.05 0
1.15 0 0
1.2 0 0
1.15 0.05 0
1.2 0.05 0
1.2 0 0
1.25 0 0
1.2 0.05 0
1.25 0.05 0
1.45 0 0
1.5 0 0
1.45 0.05 0
1.5 0.05 0
1.5 0 0
1.55 0 0
1.5 0.05 0
1.55 0.05 0
1.55 0 0
1.6 0 0
1.55 0.05 0
1.6 0.05 0
1.6 0 0
1.65 0 0
1.6 0.05 0
1.65 0.05 0
1.65 0 0
1.7 0 0
1.65 0.05 0
1.7 0.05 0
1.7 0 0
1.75 0 0
1.7 0.05 0
1.75 0.05 0
1.75 0 0
1.8 0 0
1.75 0.05 0
1.8 0.05 0
1.8 0 0
1.85 0 0
1.8 0.05 0
1.85 0.05 0
1.85 0 0
1.9 0 0
1.85 0.05 0
1.9 0.05 0
1.9 0 0
1.95 0 0
1.9 0.05 0
1.95 0.05 0
1.95 0 0
2 0 0
1.95 0.05 0
2 0.05 0
0 0.05 0
0.05 0.05 0
0 0.1 0
0.05 0.1 0
0.05 0.05 0
0.1 0.05 0
0.05 0.1 0
0.1 0.1 0
0.1 0.05 0
0.15 0.05 0
0.1 0.1 0
0.15 0.1 0
0.15 0.05 0
0.2 0.05 0
0.15 0.1 0
0.2 0.1 0
0.2 0.05 0
0.25 0.05 0
0.2 0.1 0
0.25 0.1 0
0.25 0.05 0
0.3 0.05 0
0.25 0.1 0
0.3 0.1 0
0.3 0.05 0
0.35 0.05 0
0.3 0.1 0
0.35 0.1 0
0.35 0.05 0
0.4 0.05 0
0.35 0.1 0
0.4 0.1 0
1.15 0.05 0
1.2 0.05 0
1.15 0.1 0
1.2 0.1 0
1.2 0.05 0
1.25 0.05 0
1.2 0.1 0
1.25 0.1 0
1.25 0.05 0
1.3 0.05 0
1.25 0.1 0
1.3 0.1 0
1.55 0.05 0
1.6 0.05 0
1.55 0.1 0
1.6 0.1 0
1.6 0.05 0
1.65 0.05 0
1.6 0.1 0
1.65 0.1 0
1.65 0.05 0
1.7 0.05 0
1.65 0.1 0
1.7 0.1 0
1.7 0.05 0
1.75 0.05 0
1.7 0.1 0
1.75 0.1 0
1.75 0.05 0
1.8 0.05 0
1.75 0.1 0
1.8 0.1 0
1.8 0.05 0
1.85 0.05 0
1.8 0.1 0
1.85 0.1 0
1.85 0.05 0
1.9 0.05 0
1.85 0.1 0
1.9 0.1 0
1.9 0.05 0
1.95 0.05 0
1.9 0.1 0
1.95 0.1 0
1.95 0.05 0
2 0.05 0
1.95 0.1 0
2 0.1 0
0.15 0.1 0
0.2 0.1 0
0.15 0.15 0
0.2 0.15 0
0.2 0.1 0
0.25 0.1 0
0.2 0.15 0
0.25 0.15 0
0.25 0.1 0
0.3 0.1 0
0.25 0.15 0
0.3 0.15 0
0.3 0.1 0
0.35 0.1 0
0.3 0.15 0
0.35 0.15 0
1.65 0.1 0
1.7 0.1 0
1.65 0.15 0
1.7 0.15 0
1.7 0.1 0
1.75 0.1 0
1.7 0.15 0
1.75 0.15 0
1.75 0.1 0
1.8 0.1 0
1.75 0.15 0
1.8 0.15 0
1.8 0.1 0
1.85 0.1 0
1.8 0.15 0
1.85 0.15 0
1.85 0.1 0
1.9 0.1 0
1.85 0.15 0
1.9 0.15 0
1.9 0.1 0
1.95 0.1 0
1.9 0.15 0
1.95 0.15 0
1.95 0.1 0
2 0.1 0
1.95 0.15 0
2 0.15 0
0.25 0.15 0
0.3 0.15 0
0.25 0.2 0
0.3 0.2 0
0.3 0.15 0
0.35 0.15 0
0.3 0.2 0
0.35 0.2 0
0.35 0.15 0
0.4 0.15 0
0.35 0.2 0
0.4 0.2 0
0.65 0.15 0
0.7 0.15 0
0.65 0.2 0
0.7 0.2 0
0.7 0.15 0
0.75 0.15 0
0.7 0.2 0
0.75 0.2 0
0.75 0.15 0
0.8 0.15 0
0.75 0.2 0
0.8 0.2 0
0.8 0.15 0
0.85 0.15 0
0.8 0.2 0
0.85 0.2 0
0.85 0.15 0
0.9 0.15 0
0.85 0.2 0
0.9 0.2 0
0.9 0.15 0
0.95 0.15 0
0.9 0.2 0
0.95 0.2 0
0.95 0.15 0
1 0.15 0
0.95 0.2 0
1 0.2 0
1 0.15 0
1.05 0.15 0
1 0.2 0
1.05 0.2 0
1.75 0.15 0
1.8 0.15 0
1.75 0.2 0
1.8 0.2 0
1.8 0.15 0
1.85 0.15 0
1.8 0.2 0
1.85 0.2 0
1.85 0.15 0
1.9 0.15 0
1.85 0.2 0
1.9 0.2 0
1.9 0.15 0
1.95 0.15 0
1.9 0.2 0
1.95 0.2 0
1.95 0.15 0
2 0.15 0
1.95 0.2 0
2 0.2 0
0.35 0.2 0
0.4 0.2 0
0.35 0.25 0
0.4 0.25 0
0.4 0.2 0
0.45 0.2 0
0.4 0.25 0
0.45 0.25 0
0.8 0.2 0
0.85 0.2 0
0.8 0.25 0
0.85 0.25 0
0.85 0.2 0
0.9 0.2 0
0.85 0.25 0
0.9 0.25 0
0.9 0.2 0
0.95 0.2 0
0.9 0.25 0
0.95 0.25 0
0.95 0.2 0
1 0.2 0
0.95 0.25 0
1 0.25 0
1.8 0.2 0
1.85 0.2 0
1.8 0.25 0
1.85 0.25 0
1.85 0.2 0
1.9 0.2 0
1.85 0.25 0
1.9 0.25 0
1.9 0.2 0
1.95 0.2 0
1.9 0.25 0
1.95 0.25 0
1.95 0.2 0
2 0.2 0
1.95 0.25 0
2 0.25 0
0 0.25 0
0.05 0.25 0
0 0.3 0
0.05 0.3 0
0.05 0.25 0
0.1 0.25 0
0.05 0.3 0
0.1 0.3 0
0.1 0.25 0
0.15 0.25 0
0.1 0.3 0
0.15 0.3 0
0.45 0.25 0
0.5 0.25 0
0.45 0.3 0
0.5 0.3 0
0.5 0.25 0
0.55 0.25 0
0.5 0.3 0
0.55 0.3 0
0.9 0.25 0
0.95 0.25 0
0.9 0.3 0
0.95 0.3 0
0.95 0.25 0
1 0.25 0
0.95 0.3 0
1 0.3 0
1.25 0.25 0
1.3 0.25 0
1.25 0.3 0
1.3 0.3 0
1.3 0.25 0
1.35 0.25 0
1.3 0.3 0
1.35 0.3 0
1.9 0.25 0
1.95 0.25 0
1.9 0.3 0
1.95 0.3 0
1.95 0.25 0
2 0.25 0
1.95 0.3 0
2 0.3 0
0 0.3 0
0.05 0.3 0
0 0.35 0
0.05 0.35 0
0.05 0.3 0
0.1 0.3 0
0.05 0.35 0
0.1 0.35 0
0.1 0.3 0
0.15 0.3 0
0.1 0.35 0
0.15 0.35 0
0.15 0.3 0
0.2 0.3 0
0.15 0.35 0
0.2 0.35 0
0.2 0.3 0
0.25 0.3 0
0.2 0.35 0
0.25 0.35 0
0.6 0.3 0
0.65 0.3 0
0.6 0.35 0
0.65 0.35 0
1.2 0.3 0
1.25 0.3 0
1.2 0.35 0
1.25 0.35 0
1.25 0.3 0
1.3 0.3 0
1.25 0.35 0
1.3 0.35 0
1.3 0.3 0
1.35 0.3 0
1.3 0.35 0
1.35 0.35 0
1.35 0.3 0
1.4 0.3 0
1.35 0.35 0
1.4 0.35 0
0 0.35 0
0.05 0.35 0
0 0.4 0
0.05 0.4 0
0.05 0.35 0
0.1 0.35 0
0.05 0.4 0
0.1 0.4 0
0.1 0.35 0
0.15 0.35 0
0.1 0.4 0
0.15 0.4 0
0.15 0.35 0
0.2 0.35 0
0.15 0.4 0
0.2 0.4 0
0.2 0.35 0
0.25 0.35 0
0.2 0.4 0
0.25 0.4 0
0.25 0.35 0
0.3 0.35 0
0.25 0.4 0
0.3 0.4 0
0.3 0.35 0
0.35 0.35 0
0.3 0.4 0
0.35 0.4 0
0.7 0.35 0
0.75 0.35 0
0.7 0.4 0
0.75 0.4 0
0.75 0.35 0
0.8 0.35 0
0.75 0.4 0
0.8 0.4 0
1.2 0.35 0
1.25 0.35 0
1.2 0.4 0
1.25 0.4 0
1.25 0.35 0
1.3 0.35 0
1.25 0.4 0
1.3 0.4 0
1.3 0.35 0
1.35 0.35 0
1.3 0.4 0
1.35 0.4 0
1.35 0.35 0
1.4 0.35 0
1.35 0.4 0
1.4 0.4 0
1.4 0.35 0
1.45 0.35 0
1.4 0.4 0
1.45 0.4 0
1.45 0.35 0
1.5 0.35 0
1.45 0.4 0
1.5 0.4 0
0 0.4 0
0.05 0.4 0
0 0.45 0
0.05 0.45 0
0.05 0.4 0
0.1 0.4 0
0.05 0.45 0
0.1 0.45 0
0.1 0.4 0
0.15 0.4 0
0.1 0.45 0
0.15 0.45 0
0.15 0.4 0
0.2 0.4 0
0.15 0.45 0
0.2 0.45 0
0.2 0.4 0
0.25 0.4 0
0.2 0.45 0
0.25 0.45 0
0.25 0.4 0
0.3 0.4 0
0.25 0.45 0
0.3 0.45 0
0.3 0.4 0
0.35 0.4 0
0.3 0.45 0
0.35 0.45 0
0.35 0.4 0
0.4 0.4 0
0.35 0.45 0
0.4 0.45 0
0.4 0.4 0
0.45 0.4 0
0.4 0.45 0
0.45 0.45 0
0.75 0.4 0
0.8 0.4 0
0.75 0.45 0
0.8 0.45 0
0.8 0.4 0
0.85 0.4 0
0.8 0.45 0
0.85 0.45 0
0.85 0.4 0
0.9 0.4 0
0.85 0.45 0
0.9 0.45 0
1.15 0.4 0
1.2 0.4 0
1.15 0.45 0
1.2 0.45 0
1.2 0.4 0
1.25 0.4 0
1.2 0.45 0
1.25 0.45 0
1.25 0.4 0
1.3 0.4 0
1.25 0.45 0
1.3 0.45 0
1.3 0.4 0
1.35 0.4 0
1.3 0.45 0
1.35 0.45 0
1.35 0.4 0
1.4 0.4 0
1.35 0.45 0
1.4 0.45 0
1.4 0.4 0
1.45 0.4 0
1.4 0.45 0
1.45 0.45 0
1.45 0.4 0
1.5 0.4 0
1.45 0.45 0
1.5 0.45 0
1.5 0.4 0
1.55 0.4 0
1.5 0.45 0
1.55 0.45 0
1.55 0.4 0
1.6 0.4 0
1.55 0.45 0
1.6 0.45 0
1.85 0.4 0
1.9 0.4 0
1.85 0.45 0
1.9 0.45 0
0 0.45 0
0.05 0.45 0
0 0.5 0
0.05 0.5 0
0.05 0.45 0
0.1 0.45 0
0.05 0.5 0
0.1 0.5 0
0.1 0.45 0
0.15 0.45 0
0.1 0.5 0
0.15 0.5 0
0.15 0.45 0
0.2 0.45 0
0.15 0.5 0
0.2 0.5 0
0.2 0.45 0
0.25 0.45 0
0.2 0.5 0
0.25 0.5 0
0.25 0.45 0
0.3 0.45 0
0.25 0.5 0
0.3 0.5 0
0.3 0.45 0
0.35 0.45 0
0.3 0.5 0
0.35 0.5 0
0.35 0.45 0
0.4 0.45 0
0.35 0.5 0
0.4 0.5 0
0.4 0.45 0
0.45 0.45 0
0.4 0.5 0
0.45 0.5 0
0.45 0.45 0
0.5 0.45 0
0.45 0.5 0
0.5 0.5 0
0.5 0.45 0
0.55 0.45 0
0.5 0.5 0
0.55 0.5 0
0.8 0.45 0
0.85 0.45 0
0.8 0.5 0
0.85 0.5 0
0.85 0.45 0
0.9 0.45 0
0.85 0.5 0
0.9 0.5 0
0.9 0.45 0
0.95 0.45 0
0.9 0.5 0
0.95 0.5 0
0.95 0.45 0
1 0.45 0
0.95 0.5 0
1 0.5 0
1.15 0.45 0
1.2 0.45 0
1.15 0.5 0
1.2 0.5 0
1.2 0.45 0
1.25 0.45 0
1.2 0.5 0
1.25 0.5 0
1.25 0.45 0
1.3 0.45 0
1.25 0.5 0
1.3 0.5 0
1.3 0.45 0
1.35 0.45 0
1.3 0.5 0
1.35 0.5 0
1.35 0.45 0
1.4 0.45 0
1.35 0.5 0
1.4 0.5 0
1.4 0.45 0
1.45 0.45 0
1.4 0.5 0
1.45 0.5 0
1.45 0.45 0
1.5 0.45 0
1.45 0.5 0
1.5 0.5 0
1.5 0.45 0
1.55 0.45 0
1.5 0.5 0
1.55 0.5 0
1.55 0.45 0
1.6 0.45 0
1.55 0.5 0
1.6 0.5 0
1.6 0.45 0
1.65 0.45 0
1.6 0.5 0
1.65 0.5 0
1.9 0.45 0
1.95 0.45 0
1.9 0.5 0
1.95 0.5 0
1.95 0.45 0
2 0.45 0
1.95 0.5 0
2 0.5 0
0 0.5 0
0.05 0.5 0
0 0.55 0
0.05 0.55 0
0.05 0.5 0
0.1 0.5 0
0.05 0.55 0
0.1 0.55 0
0.1 0.5 0
0.15 0.5 0
0.1 0.55 0
0.15 0.55 0
0.15 0.5 0
0.2 0.5 0
0.15 0.55 0
0.2 0.55 0
0.2 0.5 0
0.25 0.5 0
0.2 0.55 0
0.25 0.55 0
0.25 0.5 0
0.3 0.5 0
0.25 0.55 0
0.3 0.55 0
0.3 0.5 0
0.35 0.5 0
0.3 0.55 0
0.35 0.55 0
0.35 0.5 0
0.4 0.5 0
0.35 0.55 0
0.4 0.55 0
0.4 0.5 0
0.45 0.5 0
0.4 0.55 0
0.45 0.55 0
0.45 0.5 0
0.5 0.5 0
0.45 0.55 0
0.5 0.55 0
0.5 0.5 0
0.55 0.5 0
0.5 0.55 0
0.55 0.55 0
0.8 0.5 0
0.85 0.5 0
0.8 0.55 0
0.85 0.55 0
0.85 0.5 0
0.9 0.5 0
0.85 0.55 0
0.9 0.55 0
0.9 0.5 0
0.95 0.5 0
0.9 0.55 0
0.95 0.55 0
0.95 0.5 0
1 0.5 0
0.95 0.55 0
1 0.55 0
1.15 0.5 0
1.2 0.5 0
1.15 0.55 0
1.2 0.55 0
1.2 0.5 0
1.25 0.5 0
1.2 0.55 0
1.25 0.55 0
1.25 0.5 0
1.3 0.5 0
1.25 0.55 0
1.3 0.55 0
1.3 0.5 0
1.35 0.5 0
1.3 0.55 0
1.35 0.55 0
1.35 0.5 0
1.4 0.5 0
1.35 0.55 0
1.4 0.55 0
1.4 0.5 0
1.45 0.5 0
1.4 0.55 0
1.45 0.55 0
1.45 0.5 0
1.5 0.5 0
1.45 0.55 0
1.5 0.55 0
1.5 0.5 0
1.55 0.5 0
1.5 0.55 0
1.55 0.55 0
1.55 0.5 0
1.6 0.5 0
1.55 0.55 0
1.6 0.55 0
1.6 0.5 0
1.65 0.5 0
1.6 0.55 0
1.65 0.55 0
1.9 0.5 0
1.95 0.5 0
1.9 0.55 0
1.95 0.55 0
1.95 0.5 0
2 0.5 0
1.95 0.55 0
2 0.55 0
0 0.55 0
0.05 0.55 0
0 0.6 0
0.05 0.6 0
0.05 0.55 0
0.1 0.55 0
0.05 0.6 0
0.1 0.6 0
0.1 0.55 0
0.15 0.55 0
0.1 0.6 0
0.15 0.6 0
0.15 0.55 0
0.2 0.55 0
0.15 0.6 0
0.2 0.6 0
0.2 0.55 0
0.25 0.55 0
0.2 0.6 0
0.25 0.6 0
0.25 0.55 0
0.3 0.55 0
0.25 0.6 0
0.3 0.6 0
0.3 0.55 0
0.35 0.55 0
0.3 0.6 0
0.35 0.6 0
0.35 0.55 0
0.4 0.55 0
0.35 0.6 0
0.4 0.6 0
0.4 0.55 0
0.45 0.55 0
0.4 0.6 0
0.45 0.6 0
0.75 0.55 0
0.8 0.55 0
0.75 0.6 0
0.8 0.6 0
0.8 0.55 0
0.85 0.55 0
0.8 0.6 0
0.85 0.6 0
0.85 0.55 0
0.9 0.55 0
0.85 0.6 0
0.9 0.6 0
1.15 0.55 0
1.2 0.55 0
1.15 0.6 0
1.2 0.6 0
1.2 0.55 0
1.25 0.55 0
1.2 0.6 0
1.25 0.6 0
1.25 0.55 0
1.3 0.55 0
1.25 0.6 0
1.3 0.6 0
1.3 0.55 0
1.35 0.55 0
1.3 0.6 0
1.35 0.6 0
1.35 0.55 0
1.4 0.55 0
1.35 0.6 0
1.4 0.6 0
1.4 0.55 0
1.45 0.55 0
1.4 0.6 0
1.45 0.6 0
1.45 0.55 0
1.5 0.55 0
1.45 0.6 0
1.5 0.6 0
1.5 0.55 0
1.55 0.55 0
1.5 0.6 0
1.55 0.6 0
1.55 0.55 0
1.6 0.55 0
1.55 0.6 0
1.6 0.6 0
1.85 0.55 0
1.9 0.55 0
1.85 0.6 0
1.9 0.6 0
0 0.6 0
0.05 0.6 0
0 0.65 0
0.05 0.65 0
0.05 0.6 0
0.1 0.6 0
0.05 0.65 0
0.1 0.65 0
0.1 0.6 0
[...]
POINT_DATA 18152
SCALARS x_displacement double 1
LOOKUP_TABLE default
0 1.34787 0 0.784969 1.34787 2.37109 0.784969 1.61525 2.37109 3.22574 1.61525 2.35051 3.22574 3.9609 2.35051 3.00474 3.9609 4.60925 3.00474 3.59324 4.60925 5.20619 3.59324 4.1312 5.20619 5.79005 4.1312 4.63566 5.79005 6.3926 4.63566 5.12787 6.3926 7.0204 5.12787 5.62462 7.0204 7.66213 5.62462 6.12055 7.66213 8.29533 6.12055 6.62699 8.29533 8.89304 6.62699 7.15616 8.89304 9.43815 7.15616 7.70964 9.43815 9.94738 7.70964 8.28779 9.94738 10.4538 8.28779 8.87917 10.4538 10.9717 8.87917 9.47149 10.9717 11.5018 9.47149 10.063 11.5018 12.0439 10.063 10.6538 12.0439 12.5979 10.6538 11.2446 12.5979 13.1632 11.2446 11.8348 13.1632 13.7532 11.8348 12.4091 13.7532 14.4116 12.4091 12.9529 14.4116 15.1378 12.9529 13.4727 15.1378 15.833 13.4727 13.9474 15.833 16.3582 13.9474 14.3478 18.3187 16.8812 15.5116 15.9316 16.8812 18.1084 15.9316 15.9915 18.1084 18.6614 15.9915 16.3586 18.6614 19.008 16.3586 16.6908 19.008 19.2489 16.6908 16.9505 19.2489 19.4132 16.9505 17.1419 19.4132 19.5069 17.1419 17.2756 19.5069 19.5404 17.2756 17.3526 19.5404 19.5335 17.3526 17.3886 19.5335 19.5164 17.3886 17.3995 19.5164 19.5098 17.3995 17.403 0 0.784969 0 0.533525 0.784969 1.61525 0.533525 1.09648 1.61525 2.35051 1.09648 1.66434 2.35051 3.00474 1.66434 2.19561 3.00474 3.59324 2.19561 2.6888 3.59324 4.1312 2.6888 3.13623 4.1312 4.63566 3.13623 3.52567 4.63566 5.12787 3.52567 3.87618 13.4727 13.9474 11.9251 12.21 13.9474 14.3478 12.21 12.4899 14.3478 14.6788 12.4899 12.7438 15.9915 16.3586 14.0262 14.3032 16.3586 16.6908 14.3032 14.5771 16.6908 16.9505 14.5771 14.7997 16.9505 17.1419 14.7997 15.014 17.1419 17.2756 15.014 15.1608 17.2756 17.3526 15.1608 15.254 17.3526 17.3886 15.254 15.3018 17.3886 17.3995 15.3018 15.3193 17.3995 17.403 15.3193 15.3248 1.66434 2.19561 1.05789 1.47749 2.19561 2.6888 1.47749 1.88258 2.6888 3.13623 1.88258 2.25433 3.13623 3.52567 2.25433 2.57499 14.5771 14.7997 12.5182 12.8192 14.7997 15.014 12.8192 12.9907 15.014 15.1608 12.9907 13.1367 15.1608 15.254 13.1367 13.2336 15.254 15.3018 13.2336 13.3013 15.3018 15.3193 13.3013 13.3217 15.3193 15.3248 13.3217 13.3213 1.88258 2.25433 1.14459 1.47337 2.25433 2.57499 1.47337 1.78594 2.57499 2.83756 1.78594 2.09994 4.23766 3.4329 3.16524 4.01122 3.4329 5.93122 4.01122 4.38561 5.93122 6.39007 4.38561 5.31825 6.39007 7.11389 5.31825 5.94987 7.11389 7.87382 5.94987 6.55293 7.87382 8.81389 6.55293 7.8134 8.81389 10.7792 7.8134 7.88079 10.7792 10.1984 7.88079 8.59965 12.9907 13.1367 10.9806 11.0986 13.1367 13.2336 11.0986 11.3113 13.2336 13.3013 11.3113 11.4133 13.3013 13.3217 11.4133 11.439 13.3217 13.3213 11.439 11.4259 1.78594 2.09994 1.04411 1.35352 2.09994 2.40118 1.35352 1.66603 5.31825 5.94987 4.12424 5.05694 5.94987 6.55293 5.05694 6.4136 6.55293 7.8134 6.4136 3.9822 7.8134 7.88079 3.9822 6.14378 11.0986 11.3113 9.35333 9.5257 11.3113 11.4133 9.5257 9.6548 11.4133 11.439 9.6548 9.69489 11.439 11.4259 9.69489 9.64701 0 -0.0397798 0 0.0393977 -0.0397798 0.00125677 0.0393977 0.0410579 0.00125677 0.0834806 0.0410579 0.046608 1.66603 1.9736 0.919791 1.24593 1.9736 2.28279 1.24593 1.56637 6.4136 3.9822 3.98621 4.80396 3.9822 6.14378 4.80396 5.21575 7.15485 7.24023 5.66147 5.68583 7.24023 7.28455 5.68583 5.70474 9.6548 9.69489 8.04276 8.05 9.69489 9.64701 8.05 7.97435 0 0.0393977 0 0.02854 0.0393977 0.0410579 0.02854 0.0321024 0.0410579 0.046608 0.0321024 0.0165496 0.046608 0.0776365 0.0165496 -0.00579253 0.0776365 0.0465309 -0.00579253 -0.00948127 1.8922 2.2255 1.17458 1.48515 5.59726 5.66147 4.09217 4.15015 5.66147 5.68583 4.15015 4.20591 5.68583 5.70474 4.20591 4.26037 5.70474 5.78093 4.26037 4.3004 0 0.02854 0 0.0164134 0.02854 0.0321024 0.0164134 0.0143168 0.0321024 0.0165496 0.0143168 -0.00188757 0.0165496 -0.00579253 -0.00188757 -0.0223583 -0.00579253 -0.00948127 -0.0223583 -0.0514176 -0.00948127 -0.0325051 -0.0514176 -0.100444 -0.0325051 -0.138859 -0.100444 -0.178911 1.788 2.09868 1.02122 1.27725 2.09868 2.42461 1.27725 1.54775 4.09217 4.15015 2.62503 2.71415 4.15015 4.20591 2.71415 2.77366 4.20591 4.26037 2.77366 2.82185 4.26037 4.3004 2.82185 2.86283 4.3004 4.34696 2.86283 2.9066 4.34696 4.76986 2.9066 2.78794 0 0.0164134 0 0.00690333 0.0164134 0.0143168 0.00690333 0.00447818 0.0143168 -0.00188757 0.00447818 -0.00480637 -0.00188757 -0.0223583 -0.00480637 -0.0193128 -0.0223583 -0.0514176 -0.0193128 -0.0386678 -0.0514176 -0.100444 -0.0386678 -0.0585049 -0.100444 -0.178911 -0.0585049 -0.056286 -0.178911 -0.181632 -0.056286 -0.039157 -0.181632 0.116894 -0.039157 -0.0853361 1.27725 1.54775 0.533427 0.725561 1.54775 1.80593 0.725561 0.877904 1.80593 2.03353 0.877904 0.988818 2.49802 2.62503 1.1007 1.2502 2.62503 2.71415 1.2502 1.33073 2.71415 2.77366 1.33073 1.37538 2.77366 2.82185 1.37538 1.40482 2.82185 2.86283 1.40482 1.42515 2.86283 2.9066 1.42515 1.41638 2.9066 2.78794 1.41638 1.42747 2.78794 2.84349 1.42747 1.43143 2.84349 2.84193 1.43143 1.4505 3.89605 4.15664 1.86992 2.07763 0 0.00690333 0 -7.80881e-12 0.00690333 0.00447818 -7.80881e-12 -1.83598e-11 0.00447818 -0.00480637 -1.83598e-11 -2.26762e-11 -0.00480637 -0.0193128 -2.26762e-11 -2.0991e-11 -0.0193128 -0.0386678 -2.0991e-11 -1.66414e-11 -0.0386678 -0.0585049 -1.66414e-11 -1.56115e-11 -0.0585049 -0.056286 -1.56115e-11 -1.95697e-11 -0.056286 -0.039157 -1.95697e-11 -2.28728e-11 -0.039157 -0.0853361 -2.28728e-11 -3.05392e-11 -0.0853361 -0.107401 -3.05392e-11 -3.86683e-11 -0.107401 -0.0974501 -3.86683e-11 -4.54895e-11 0.725561 0.877904 1.35965e-12 1.45116e-12 0.877904 0.988818 1.45116e-12 1.47311e-12 0.988818 1.04073 1.47311e-12 1.36533e-12 1.04073 1.01648 1.36533e-12 1.05761e-12 1.1007 1.2502 3.70477e-11 9.81367e-11 1.2502 1.33073 9.81367e-11 1.35639e-10 1.33073 1.37538 1.35639e-10 -1.9496e-10 1.37538 1.40482 -1.9496e-10 2.25024e-10 1.40482 1.42515 2.25024e-10 -1.60181e-10 1.42515 1.41638 -1.60181e-10 -1.62912e-10 1.41638 1.42747 -1.62912e-10 1.44359e-11 1.42747 1.43143 1.44359e-11 3.46881e-10 1.43143 1.4505 3.46881e-10 8.29275e-11 1.4505 1.39566 8.29275e-11 -1.37772e-10 2.07763 2.28572 1.36047e-12 9.34472e-13 2.28572 2.29205 9.34472e-13 6.57735e-13 0 -7.80881e-12 0 -0.00690333 -7.80881e-12 -1.83598e-11 -0.00690333 -0.00447818 -1.83598e-11 -2.26762e-11 -0.00447818 0.00480637 -2.26762e-11 -2.0991e-11 0.00480637 0.0193128 -2.0991e-11 -1.66414e-11 0.0193128 0.0386678 -1.66414e-11 -1.56115e-11 0.0386678 0.0585049 -1.56115e-11 -1.95697e-11 0.0585049 0.056286 -1.95697e-11 -2.28728e-11 0.056286 0.039157 -2.28728e-11 -3.05392e-11 0.039157 0.0853361 -3.05392e-11 -3.86683e-11 0.0853361 0.107401 -3.86683e-11 -4.54895e-11 0.107401 0.0974501 1.35965e-12 1.45116e-12 -0.725561 -0.877904 1.45116e-12 1.47311e-12 -0.877904 -0.988818 1.47311e-12 1.36533e-12 -0.988818 -1.04073 1.36533e-12 1.05761e-12 -1.04073 -1.01648 3.70477e-11 9.81367e-11 -1.1007 -1.2502 9.81367e-11 1.35639e-10 -1.2502 -1.33073 1.35639e-10 -1.9496e-10 -1.33073 -1.37538 -1.9496e-10 2.25024e-10 -1.37538 -1.40482 2.25024e-10 -1.60181e-10 -1.40482 -1.42515 -1.60181e-10 -1.62912e-10 -1.42515 -1.41638 -1.62912e-10 1.44359e-11 -1.41638 -1.42747 1.44359e-11 3.46881e-10 -1.42747 -1.43143 3.46881e-10 8.29275e-11 -1.43143 -1.4505 8.29275e-11 -1.37772e-10 -1.4505 -1.39566 1.36047e-12 9.34472e-13 -2.07763 -2.28572 9.34472e-13 6.57735e-13 -2.28572 -2.29205 0 -0.00690333 0 -0.0164134 -0.00690333 -0.00447818 -0.0164134 -0.0143168 -0.00447818 0.00480637 -0.0143168 0.00188757 0.00480637 0.0193128 0.00188757 0.0223583 0.0193128 0.0386678 0.0223583 0.0514176 0.0386678 0.0585049 0.0514176 0.100444 0.0585049 0.056286 0.100444 0.178911 0.056286 0.039157 0.178911 0.181632 0.039157 0.0853361 0.181632 -0.116894 -0.533427 -0.725561 -1.27725 -1.54775 -0.725561 -0.877904 -1.54775 -1.80593 -0.877904 -0.988818 -1.80593 -2.03353 -1.1007 -1.2502 -2.49802 -2.62503 -1.2502 -1.33073 -2.62503 -2.71415 -1.33073 -1.37538 -2.71415 -2.77366 -1.37538 -1.40482 -2.77366 -2.82185 -1.40482 -1.42515 -2.82185 -2.86283 -1.42515 -1.41638 -2.86283 -2.9066 -1.41638 -1.42747 -2.9066 -2.78794 -1.42747 -1.43143 -2.78794 -2.84349 -1.43143 -1.4505 -2.84349 -2.84193 -1.86992 -2.07763 -3.89605 -4.15664 0 -0.0164134 0 -0.02854 -0.0164134 -0.0143168 -0.02854 -0.0321024 -0.0143168 0.00188757 -0.0321024 -0.0165496 0.00188757 0.0223583 -0.0165496 0.00579253 0.0223583 0.0514176 0.00579253 0.00948127 0.0514176 0.100444 0.00948127 0.0325051 0.100444 0.178911 0.0325051 0.138859 -1.02122 -1.27725 -1.788 -2.09868 -1.27725 -1.54775 -2.09868 -2.42461 -2.62503 -2.71415 -4.09217 -4.15015 -2.71415 -2.77366 -4.15015 -4.20591 -2.77366 -2.82185 -4.20591 -4.26037 -2.82185 -2.86283 -4.26037 -4.3004 -2.86283 -2.9066 -4.3004 -4.34696 -2.9066 -2.78794 -4.34696 -4.76986 0 -0.02854 0 -0.0393977 -0.02854 -0.0321024 -0.0393977 -0.0410579 -0.0321024 -0.0165496 -0.0410579 -0.046608 -0.0165496 0.00579253 -0.046608 -0.0776365 0.00579253 0.00948127 -0.0776365 -0.0465309 -1.17458 -1.48515 -1.8922 -2.2255 -4.09217 -4.15015 -5.59726 -5.66147 -4.15015 -4.20591 -5.66147 -5.68583 -4.20591 -4.26037 -5.68583 -5.70474 -4.26037 -4.3004 -5.70474 -5.78093 0 -0.0393977 0 0.0397798 -0.0393977 -0.0410579 0.0397798 -0.00125677 -0.0410579 -0.046608 -0.00125677 -0.0834806 -0.919791 -1.24593 -1.66603 -1.9736 -1.24593 -1.56637 -1.9736 -2.28279 -3.98621 -4.80396 -6.4136 -3.9822 -4.80396 -5.21575 -3.9822 -6.14378 -5.66147 -5.68583 -7.15485 -7.24023 -5.68583 -5.70474 -7.24023 -7.28455 -8.04276 -8.05 -9.6548 -9.69489 -8.05 -7.97435 -9.69489 -9.64701 -1.04411 -1.35352 -1.78594 -2.09994 -1.35352 -1.66603 -2.09994 -2.40118 -4.12424 -5.05694 -5.31825 -5.94987 -5.05694 -6.4136 -5.94987 -6.55293 -6.4136 -3.9822 -6.55293 -7.8134 -3.9822 -6.14378 -7.8134 -7.88079 -9.35333 -9.5257 -11.0986 -11.3113 -9.5257 -9.6548 -11.3113 -11.4133 -9.6548 -9.69489 -11.4133 -11.439 -9.69489 -9.64701 -11.439 -11.4259 -1.14459 -1.47337 -1.88258 -2.25433 -1.47337 -1.78594 -2.25433 -2.57499 -1.78594 -2.09994 -2.57499 -2.83756 -3.16524 -4.01122 -4.23766 -3.4329 -4.01122 -4.38561 -3.4329 -5.93122 -4.38561 -5.31825 -5.93122 -6.39007 -5.31825 -5.94987 -6.39007 -7.11389 -5.94987 -6.55293 -7.11389 -7.87382 -6.55293 -7.8134 -7.87382 -8.81389 -7.8134 -7.88079 -8.81389 -10.7792 -7.88079 -8.59965 -10.7792 -10.1984 -10.9806 -11.0986 -12.9907 -13.1367 -11.0986 -11.3113 -13.1367 -13.2336 -11.3113 -11.4133 -13.2336 -13.3013 -11.4133 -11.439 -13.3013 -13.3217 -11.439 -11.4259 -13.3217 -13.3213 -1.05789 -1.47749 -1.66434 -2.19561 -1.47749 -1.88258 -2.19561 -2.6888 -1.88258 -2.25433 -2.6888 -3.13623 -2.25433 -2.57499 -3.13623 -3.52567 -12.5182 -12.8192 -14.5771 -14.7997 -12.8192 -12.9907 -14.7997 -15.014 -12.9907 -13.1367 -15.014 -15.1608 -13.1367 -13.2336 -15.1608 -15.254 -13.2336 -13.3013 -15.254 -15.3018 -13.3013 -13.3217 -15.3018 -15.3193 -13.3217 -13.3213 -15.3193 -15.3248 0 -0.533525 0 -0.784969 -0.533525 -1.09648 -0.784969 -1.61525 -1.09648 -1.66434 -1.61525 -2.35051 -1.66434 -2.19561 -2.35051 -3.00474 -2.19561 -2.6888 -3.00474 -3.59324 -2.6888 -3.13623 -3.59324 -4.1312 -3.13623 -3.52567 -4.1312 -4.63566 -3.52567 -3.87618 -4.63566 -5.12787 -11.9251 -12.21 -13.4727 -13.9474 -12.21 -12.4899 -13.9474 -14.3478 -12.4899 -12.7438 -14.3478 -14.6788 -14.0262 -14.3032 -15.9915 -16.3586 -14.3032 -14.5771 -16.3586 -16.6908 -14.5771 -14.7997 -16.6908 -16.9505 -14.7997 -15.014 -16.9505 -17.1419 -15.014 -15.1608 -17.1419 -17.2756 -15.1608 -15.254 -17.2756 -17.3526 -15.254 -15.3018 -17.3526 -17.3886 -15.3018 -15.3193 -17.3886 -17.3995 -15.3193 -15.3248 -17.3995 -17.403 0 -0.784969 0 -1.34787 -0.784969 -1.61525 -1.34787 -2.37109 -1.61525 -2.35051 -2.37109 -3.22574 -2.35051 -3.00474 -3.22574 -3.9609 -3.00474 -3.59324 -3.9609 -4.60925 -3.59324 -4.1312 -4.60925 -5.20619 -4.1312 -4.63566 -5.20619 -5.79005 -4.63566 -5.12787 -5.79005 -6.3926 -5.12787 -5.62462 -6.3926 -7.0204 -5.62462 -6.12055 -7.0204 -7.66213 -6.12055 -6.62699 -7.66213 -8.29533 -6.62699 -7.15616 -8.29533 -8.89304 -7.15616 -7.70964 -8.89304 -9.43815 -7.70964 -8.28779 -9.43815 -9.94738 -8.28779 -8.87917 -9.94738 -10.4538 -8.87917 -9.47149 -10.4538 -10.9717 -9.47149 -10.063 -10.9717 -11.5018 -10.063 -10.6538 -11.5018 -12.0439 -10.6538 -11.2446 -12.0439 -12.5979 -11.2446 -11.8348 -12.5979 -13.1632 -11.8348 -12.4091 -13.1632 -13.7532 -12.4091 -12.9529 -13.7532 -14.4116 -12.9529 -13.4727 -14.4116 -15.1378 -13.4727 -13.9474 -15.1378 -15.833 -13.9474 -14.3478 -15.833 -16.3582 -15.5116 -15.9316 -18.3187 -16.8812 -15.9316 -15.9915 -16.8812 -18.1084 -15.9915 -16.3586 -18.1084 -18.6614 -16.3586 -16.6908 -18.6614 -19.008 -16.6908 -16.9505 -19.008 -19.2489 -16.9505 -17.1419 -19.2489 -19.4132 -17.1419 -17.2756 -19.4132 -19.5069 -17.2756 -17.3526 -19.5069 -19.5404 -17.3526 -17.3886 -19.5404 -19.5335 -17.3886 -17.3995 -19.5335 -19.5164 -17.3995 -17.403 -19.5164 -19.5098 17.2499 17.2608 15.7344 16.2818 5.62462 5.87259 4.92395 5.1336 5.87259 6.12055 5.1336 5.34557 4.92395 5.1336 4.22153 4.39373 5.1336 5.34557 4.39373 4.56421 6.12055 6.37377 5.34557 5.56164 6.37377 6.62699 5.56164 5.78618 5.34557 5.56164 4.56421 4.73525 5.56164 5.78618 4.73525 4.92084 6.62699 6.89157 5.78618 6.01819 6.89157 7.15616 6.01819 6.27127 7.15616 7.4329 6.27127 6.5395 7.4329 7.70964 6.5395 6.83257 7.70964 7.99871 6.83257 7.13974 7.99871 8.28779 7.13974 7.45639 8.28779 8.58348 7.45639 7.77413 8.58348 8.87917 7.77413 8.09096 8.87917 9.17533 8.09096 8.40634 9.17533 9.47149 8.40634 8.71983 9.47149 9.76723 8.71983 9.03189 9.76723 10.063 9.03189 9.34197 10.063 10.3584 9.34197 9.65058 10.3584 10.6538 9.65058 9.95724 10.6538 10.9492 9.95724 10.2624 10.9492 11.2446 10.2624 10.5656 11.2446 11.5397 10.5656 10.8673 11.5397 11.8348 10.8673 11.1666 11.8348 12.1219 11.1666 11.4643 12.1219 12.4091 11.4643 11.7505 12.4091 12.681 11.7505 12.0156 12.681 12.9529 12.0156 12.2496 13.9845 14.1006 12.987 13.1115 15.5116 15.7216 14.4454 14.3829 15.7216 15.9316 14.3829 14.7356 0 0.266762 0 0.196074 0.266762 0.533525 0.196074 0.406632 0.533525 0.815002 0.406632 0.640003 0.815002 1.09648 0.640003 0.879041 0.406632 0.640003 0.295023 0.475126 0.640003 0.879041 0.475126 0.647433 4.85923 5.14376 4.23766 3.83528 5.14376 5.72736 3.83528 3.4329 5.72736 6.13317 3.4329 4.68206 6.13317 6.49479 4.68206 5.93122 6.49479 6.85998 5.93122 6.16065 6.85998 7.20728 6.16065 6.39007 7.20728 7.54939 6.39007 6.75198 7.54939 7.88619 6.75198 7.11389 7.88619 8.21918 7.11389 7.49385 8.21918 8.54487 7.49385 7.87382 8.54487 8.86594 7.87382 8.34385 8.86594 9.18342 8.34385 8.81389 9.18342 9.51556 8.81389 9.79656 9.51556 9.93041 9.79656 10.7792 9.93041 10.3796 10.7792 10.4888 10.3796 11.0846 10.4888 10.1984 11.0846 11.0028 10.1984 10.471 11.7804 11.9251 11.1259 11.1956 12.4899 12.6169 11.5184 11.6228 12.6169 12.7438 11.6228 11.7408 14.0262 14.1647 12.9906 13.1876 14.1647 14.3032 13.1876 13.4108 13.1876 13.4108 12.1486 12.0875 0 0.363209 0 -0.0574236 0.844939 1.05789 0.576605 0.758783 1.05789 1.26769 0.758783 0.942484 1.26769 1.47749 0.942484 1.13508 3.55502 3.77951 3.14737 3.07949 3.77951 3.67033 3.07949 3.26951 3.67033 3.75412 3.26951 3.52557 10.1984 10.471 9.39904 9.59919 9.39904 9.59919 8.59965 8.68114 10.3902 10.4149 9.55752 9.58386 9.55752 9.58386 8.76181 8.76756 10.9908 11.1271 9.99331 10.1307 11.1271 11.2604 10.1307 10.2706 10.8198 10.9506 9.84692 9.98162 10.9506 11.0802 9.98162 10.115 12.4715 12.5182 11.162 11.7104 -0.0650075 0.187884 0.00125677 0.0423687 0.187884 0.462893 0.0423687 0.0834806 1.14459 1.30898 0.797368 0.947686 1.30898 1.47337 0.947686 1.10271 2.33679 2.48569 1.9736 2.12819 2.48569 2.62982 2.12819 2.28279 3.16524 3.58823 2.85489 3.28956 3.58823 4.01122 3.28956 3.37517 7.87892 7.87235 7.12506 7.15485 7.93082 8.09836 7.24023 7.26239 8.09836 8.39333 7.26239 7.28455 9.42881 9.57161 8.46603 8.60501 9.4355 9.56429 8.45277 8.5931 10.9666 10.9806 9.98512 10.0306 0.0720132 0.184778 0.0776365 0.0620837 0.184778 0.42921 0.0620837 0.0465309 1.04411 1.19882 0.684786 0.829271 1.19882 1.35352 0.829271 0.981953 2.24817 2.41204 1.8922 2.05885 2.41204 2.57389 2.05885 2.2255 3.89194 4.12424 3.16025 3.57205 4.12424 4.59059 3.57205 3.93591 4.59059 5.05694 3.93591 4.41016 6.14378 6.77209 5.67976 6.19608 5.67976 6.19608 5.21575 5.55989 7.17265 7.18835 6.38888 6.3905 6.38888 6.3905 5.5964 5.6151 6.3896 6.59703 5.78093 5.74257 8.03918 8.18098 7.07123 7.20132 8.02087 8.16904 7.07072 7.21834 9.35333 9.43952 8.28125 8.59227 9.43952 9.5257 8.59227 8.75671 -0.037777 0.045371 -0.0325051 -0.0856822 0.045371 0.254932 -0.0856822 -0.138859 0.919791 1.08286 0.550099 0.712947 1.08286 1.24593 0.712947 0.867933 2.56989 2.72893 2.174 2.34534 2.72893 2.90701 2.34534 2.52843 2.174 2.34534 1.788 1.94334 2.34534 2.52843 1.94334 2.09868 2.52843 2.6906 2.09868 2.26165 2.6906 2.85492 2.26165 2.42461 3.98621 4.39508 3.5103 3.38899 4.39508 4.80396 3.38899 4.00565 5.60394 5.59726 4.8039 4.84472 4.8039 4.84472 4.01776 4.09217 4.93816 5.25775 4.76986 3.90764 6.52509 6.65728 5.55877 5.68524 6.65728 6.7909 5.68524 5.82045 6.37487 6.51641 5.3883 5.52117 6.51641 6.65508 5.52117 5.65891 8.04276 8.04638 6.93263 7.21685 8.04638 8.05 7.21685 7.32548 0.214221 0.0872748 -0.717897 -0.279513 -0.717897 -0.279513 -0.181632 -0.0323688 -0.279513 0.00372464 -0.0323688 0.116894 0.00372464 0.245043 0.116894 -0.0409949 1.01333 1.17458 0.666727 0.808177 2.75609 2.92289 2.28115 2.434 2.28115 2.434 1.80593 1.91973 2.434 2.57371 1.91973 2.03353 2.57371 2.7118 2.03353 2.14317 3.99993 4.01337 3.21812 3.21548 3.21812 3.21548 2.42645 2.45259 4.52502 4.47763 3.25854 3.426 3.25854 3.426 2.84349 2.84271 3.426 3.82009 2.84271 2.84193 4.92208 5.0575 3.89605 4.02635 5.0575 5.18586 4.02635 4.15664 6.71357 5.94765 5.498 5.7138 -0.186274 0.278983 -0.0974501 -0.162753 0.886249 1.02122 0.527272 0.64767 2.42899 2.49802 1.71514 1.79936 1.71514 1.79936 1.01291 1.1007 2.12524 2.18322 1.39566 1.33886 3.53406 3.65438 2.55682 2.66157 3.3231 3.38648 2.28572 2.28888 3.38648 3.39659 2.28888 2.29205 -0.36931 0.128698 -3.58034e-12 1.03954e-12 0.128698 0.0780989 1.03954e-12 6.56865e-13 1.01648 1.00993 0.508242 0.454202 0.508242 0.454202 1.05761e-12 8.34064e-13 0.55071 0.631781 2.7291e-11 2.81904e-11 1.77328 1.86992 0.817481 0.905249 -3.58034e-12 1.03954e-12 0.36931 -0.128698 1.03954e-12 6.56865e-13 -0.128698 -0.0780989 1.05761e-12 8.34064e-13 -0.508242 -0.454202 -0.508242 -0.454202 -1.01648 -1.00993 2.7291e-11 2.81904e-11 -0.55071 -0.631781 -0.817481 -0.905249 -1.77328 -1.86992 0.0974501 0.162753 0.186274 -0.278983 -0.527272 -0.64767 -0.886249 -1.02122 -1.01291 -1.1007 -1.71514 -1.79936 -1.71514 -1.79936 -2.42899 -2.49802 -1.39566 -1.33886 -2.12524 -2.18322 -2.55682 -2.66157 -3.53406 -3.65438 -2.28572 -2.28888 -3.3231 -3.38648 -2.28888 -2.29205 -3.38648 -3.39659 0.181632 0.0323688 0.717897 0.279513 0.0323688 -0.116894 0.279513 -0.00372464 0.717897 0.279513 -0.214221 -0.0872748 -0.116894 0.0409949 -0.00372464 -0.245043 -0.666727 -0.808177 -1.01333 -1.17458 -1.80593 -1.91973 -2.28115 -2.434 -1.91973 -2.03353 -2.434 -2.57371 -2.28115 -2.434 -2.75609 -2.92289 -2.03353 -2.14317 -2.57371 -2.7118 -2.42645 -2.45259 -3.21812 -3.21548 -3.21812 -3.21548 -3.99993 -4.01337 -2.84349 -2.84271 -3.25854 -3.426 -2.84271 -2.84193 -3.426 -3.82009 -3.25854 -3.426 -4.52502 -4.47763 -3.89605 -4.02635 -4.92208 -5.0575 -4.02635 -4.15664 -5.0575 -5.18586 -5.498 -5.7138 -6.71357 -5.94765 0.0325051 0.0856822 0.037777 -0.045371 0.0856822 0.138859 -0.045371 -0.254932 -0.550099 -0.712947 -0.919791 -1.08286 -0.712947 -0.867933 -1.08286 -1.24593 -1.788 -1.94334 -2.174 -2.34534 -1.94334 -2.09868 -2.34534 -2.52843 -2.174 -2.34534 -2.56989 -2.72893 -2.34534 -2.52843 -2.72893 -2.90701 -2.09868 -2.26165 -2.52843 -2.6906 -2.26165 -2.42461 -2.6906 -2.85492 -3.5103 -3.38899 -3.98621 -4.39508 -3.38899 -4.00565 -4.39508 -4.80396 -4.01776 -4.09217 -4.8039 -4.84472 -4.8039 -4.84472 -5.60394 -5.59726 -4.76986 -3.90764 -4.93816 -5.25775 -5.55877 -5.68524 -6.52509 -6.65728 -5.68524 -5.82045 -6.65728 -6.7909 -5.3883 -5.52117 -6.37487 -6.51641 -5.52117 -5.65891 -6.51641 -6.65508 -6.93263 -7.21685 -8.04276 -8.04638 -7.21685 -7.32548 -8.04638 -8.05 -0.0776365 -0.0620837 -0.0720132 -0.184778 -0.0620837 -0.0465309 -0.184778 -0.42921 -0.684786 -0