# vtk DataFile Version 3.0
#This file was generated by the deal.II library on 2016/3/9 at 8:35:55
ASCII
DATASET UNSTRUCTURED_GRID

POINTS 128 double
0 0 0
0.25 0 0
0 0.25 0
0.25 0.25 0
0.25 0 0
0.5 0 0
0.25 0.25 0
0.5 0.25 0
0 0.25 0
0.25 0.25 0
0 0.5 0
0.25 0.5 0
0.25 0.25 0
0.5 0.25 0
0.25 0.5 0
0.5 0.5 0
0.5 0 0
0.75 0 0
0.5 0.25 0
0.75 0.25 0
0.75 0 0
1 0 0
0.75 0.25 0
1 0.25 0
0.5 0.25 0
0.75 0.25 0
0.5 0.5 0
0.75 0.5 0
0.75 0.25 0
1 0.25 0
0.75 0.5 0
1 0.5 0
1 0 0
1.25 0 0
1 0.25 0
1.25 0.25 0
1.25 0 0
1.5 0 0
1.25 0.25 0
1.5 0.25 0
1 0.25 0
1.25 0.25 0
1 0.5 0
1.25 0.5 0
1.25 0.25 0
1.5 0.25 0
1.25 0.5 0
1.5 0.5 0
1.5 0 0
1.75 0 0
1.5 0.25 0
1.75 0.25 0
1.75 0 0
2 0 0
1.75 0.25 0
2 0.25 0
1.5 0.25 0
1.75 0.25 0
1.5 0.5 0
1.75 0.5 0
1.75 0.25 0
2 0.25 0
1.75 0.5 0
2 0.5 0
0 0.5 0
0.25 0.5 0
0 0.75 0
0.25 0.75 0
0.25 0.5 0
0.5 0.5 0
0.25 0.75 0
0.5 0.75 0
0 0.75 0
0.25 0.75 0
0 1 0
0.25 1 0
0.25 0.75 0
0.5 0.75 0
0.25 1 0
0.5 1 0
0.5 0.5 0
0.75 0.5 0
0.5 0.75 0
0.75 0.75 0
0.75 0.5 0
1 0.5 0
0.75 0.75 0
1 0.75 0
0.5 0.75 0
0.75 0.75 0
0.5 1 0
0.75 1 0
0.75 0.75 0
1 0.75 0
0.75 1 0
1 1 0
1 0.5 0
1.25 0.5 0
1 0.75 0
1.25 0.75 0
1.25 0.5 0
1.5 0.5 0
1.25 0.75 0
1.5 0.75 0
1 0.75 0
1.25 0.75 0
1 1 0
1.25 1 0
1.25 0.75 0
1.5 0.75 0
1.25 1 0
1.5 1 0
1.5 0.5 0
1.75 0.5 0
1.5 0.75 0
1.75 0.75 0
1.75 0.5 0
2 0.5 0
1.75 0.75 0
2 0.75 0
1.5 0.75 0
1.75 0.75 0
1.5 1 0
1.75 1 0
1.75 0.75 0
2 0.75 0
1.75 1 0
2 1 0

CELLS 32 160
4	0	1	3	2
4	4	5	7	6
4	8	9	11	10
4	12	13	15	14
4	16	17	19	18
4	20	21	23	22
4	24	25	27	26
4	28	29	31	30
4	32	33	35	34
4	36	37	39	38
4	40	41	43	42
4	44	45	47	46
4	48	49	51	50
4	52	53	55	54
4	56	57	59	58
4	60	61	63	62
4	64	65	67	66
4	68	69	71	70
4	72	73	75	74
4	76	77	79	78
4	80	81	83	82
4	84	85	87	86
4	88	89	91	90
4	92	93	95	94
4	96	97	99	98
4	100	101	103	102
4	104	105	107	106
4	108	109	111	110
4	112	113	115	114
4	116	117	119	118
4	120	121	123	122
4	124	125	127	126

CELL_TYPES 32
 9 9 9 9 9 9 9 9 9 9 9 9 9 9 9 9 9 9 9 9 9 9 9 9 9 9 9 9 9 9 9 9
POINT_DATA 128
SCALARS x_displacement double 1
LOOKUP_TABLE default
0 11.4299 0 -0.469002 11.4299 19.5525 -0.469002 1.97241 0 -0.469002 0 -4.40632e-12 -0.469002 1.97241 -4.40632e-12 -3.64012e-12 19.5525 25.7415 1.97241 4.36879 25.7415 31.5928 4.36879 7.45031 1.97241 4.36879 -3.64012e-12 -3.51502e-12 4.36879 7.45031 -3.51502e-12 1.08467e-11 31.5928 36.3617 7.45031 12.6506 36.3617 40.7803 12.6506 19.1779 7.45031 12.6506 1.08467e-11 2.15137e-11 12.6506 19.1779 2.15137e-11 2.05666e-11 40.7803 47.868 19.1779 26.4679 47.868 54.3594 26.4679 29.3017 19.1779 26.4679 2.05666e-11 2.29384e-11 26.4679 29.3017 2.29384e-11 2.10479e-11 0 -4.40632e-12 0 0.469002 -4.40632e-12 -3.64012e-12 0.469002 -1.97241 0 0.469002 0 -11.4299 0.469002 -1.97241 -11.4299 -19.5525 -3.64012e-12 -3.51502e-12 -1.97241 -4.36879 -3.51502e-12 1.08467e-11 -4.36879 -7.45031 -1.97241 -4.36879 -19.5525 -25.7415 -4.36879 -7.45031 -25.7415 -31.5928 1.08467e-11 2.15137e-11 -7.45031 -12.6506 2.15137e-11 2.05666e-11 -12.6506 -19.1779 -7.45031 -12.6506 -31.5928 -36.3617 -12.6506 -19.1779 -36.3617 -40.7803 2.05666e-11 2.29384e-11 -19.1779 -26.4679 2.29384e-11 2.10479e-11 -26.4679 -29.3017 -19.1779 -26.4679 -40.7803 -47.868 -26.4679 -29.3017 -47.868 -54.3594 
SCALARS y_displacement double 1
LOOKUP_TABLE default
0 10.3083 0 8.28151 10.3083 27.0818 8.28151 25.7447 0 8.28151 0 9.7642 8.28151 25.7447 9.7642 25.8581 27.0818 48.1015 25.7447 46.53 48.1015 73.1342 46.53 71.5942 25.7447 46.53 25.8581 45.2776 46.53 71.5942 45.2776 70.466 73.1342 100.383 71.5942 99.1153 100.383 127.854 99.1153 126.492 71.5942 99.1153 70.466 99.1616 99.1153 126.492 99.1616 126.078 127.854 158.775 126.492 158.589 158.775 190.6 158.589 192.688 126.492 158.589 126.078 157.54 158.589 192.688 157.54 198.097 0 9.7642 0 8.28151 9.7642 25.8581 8.28151 25.7447 0 8.28151 0 10.3083 8.28151 25.7447 10.3083 27.0818 25.8581 45.2776 25.7447 46.53 45.2776 70.466 46.53 71.5942 25.7447 46.53 27.0818 48.1015 46.53 71.5942 48.1015 73.1342 70.466 99.1616 71.5942 99.1153 99.1616 126.078 99.1153 126.492 71.5942 99.1153 73.1342 100.383 99.1153 126.492 100.383 127.854 126.078 157.54 126.492 158.589 157.54 198.097 158.589 192.688 126.492 158.589 127.854 158.775 158.589 192.688 158.775 190.6 
