# vtk DataFile Version 3.0
#This file was generated by the deal.II library on 2016/2/8 at 16:08:28
ASCII
DATASET UNSTRUCTURED_GRID

POINTS 18152 double
0 0 0
0.05 0 0
0 0.05 0
0.05 0.05 0
0.05 0 0
0.1 0 0
0.05 0.05 0
0.1 0.05 0
0.1 0 0
0.15 0 0
0.1 0.05 0
0.15 0.05 0
0.15 0 0
0.2 0 0
0.15 0.05 0
0.2 0.05 0
0.2 0 0
0.25 0 0
0.2 0.05 0
0.25 0.05 0
0.25 0 0
0.3 0 0
0.25 0.05 0
0.3 0.05 0
0.3 0 0
0.35 0 0
0.3 0.05 0
0.35 0.05 0
0.35 0 0
0.4 0 0
0.35 0.05 0
0.4 0.05 0
0.4 0 0
0.45 0 0
0.4 0.05 0
0.45 0.05 0
0.45 0 0
0.5 0 0
0.45 0.05 0
0.5 0.05 0
0.5 0 0
0.55 0 0
0.5 0.05 0
0.55 0.05 0
0.55 0 0
0.6 0 0
0.55 0.05 0
0.6 0.05 0
0.6 0 0
0.65 0 0
0.6 0.05 0
0.65 0.05 0
0.65 0 0
0.7 0 0
0.65 0.05 0
0.7 0.05 0
0.7 0 0
0.75 0 0
0.7 0.05 0
0.75 0.05 0
0.75 0 0
0.8 0 0
0.75 0.05 0
0.8 0.05 0
0.8 0 0
0.85 0 0
0.8 0.05 0
0.85 0.05 0
0.85 0 0
0.9 0 0
0.85 0.05 0
0.9 0.05 0
0.9 0 0
0.95 0 0
0.9 0.05 0
0.95 0.05 0
0.95 0 0
1 0 0
0.95 0.05 0
1 0.05 0
1 0 0
1.05 0 0
1 0.05 0
1.05 0.05 0
1.05 0 0
1.1 0 0
1.05 0.05 0
1.1 0.05 0
1.1 0 0
1.15 0 0
1.1 0.05 0
1.15 0.05 0
1.15 0 0
1.2 0 0
1.15 0.05 0
1.2 0.05 0
1.2 0 0
1.25 0 0
1.2 0.05 0
1.25 0.05 0
1.45 0 0
1.5 0 0
1.45 0.05 0
1.5 0.05 0
1.5 0 0
1.55 0 0
1.5 0.05 0
1.55 0.05 0
1.55 0 0
1.6 0 0
1.55 0.05 0
1.6 0.05 0
1.6 0 0
1.65 0 0
1.6 0.05 0
1.65 0.05 0
1.65 0 0
1.7 0 0
1.65 0.05 0
1.7 0.05 0
1.7 0 0
1.75 0 0
1.7 0.05 0
1.75 0.05 0
1.75 0 0
1.8 0 0
1.75 0.05 0
1.8 0.05 0
1.8 0 0
1.85 0 0
1.8 0.05 0
1.85 0.05 0
1.85 0 0
1.9 0 0
1.85 0.05 0
1.9 0.05 0
1.9 0 0
1.95 0 0
1.9 0.05 0
1.95 0.05 0
1.95 0 0
2 0 0
1.95 0.05 0
2 0.05 0
0 0.05 0
0.05 0.05 0
0 0.1 0
0.05 0.1 0
0.05 0.05 0
0.1 0.05 0
0.05 0.1 0
0.1 0.1 0
0.1 0.05 0
0.15 0.05 0
0.1 0.1 0
0.15 0.1 0
0.15 0.05 0
0.2 0.05 0
0.15 0.1 0
0.2 0.1 0
0.2 0.05 0
0.25 0.05 0
0.2 0.1 0
0.25 0.1 0
0.25 0.05 0
0.3 0.05 0
0.25 0.1 0
0.3 0.1 0
0.3 0.05 0
0.35 0.05 0
0.3 0.1 0
0.35 0.1 0
0.35 0.05 0
0.4 0.05 0
0.35 0.1 0
0.4 0.1 0
1.15 0.05 0
1.2 0.05 0
1.15 0.1 0
1.2 0.1 0
1.2 0.05 0
1.25 0.05 0
1.2 0.1 0
1.25 0.1 0
1.25 0.05 0
1.3 0.05 0
1.25 0.1 0
1.3 0.1 0
1.55 0.05 0
1.6 0.05 0
1.55 0.1 0
1.6 0.1 0
1.6 0.05 0
1.65 0.05 0
1.6 0.1 0
1.65 0.1 0
1.65 0.05 0
1.7 0.05 0
1.65 0.1 0
1.7 0.1 0
1.7 0.05 0
1.75 0.05 0
1.7 0.1 0
1.75 0.1 0
1.75 0.05 0
1.8 0.05 0
1.75 0.1 0
1.8 0.1 0
1.8 0.05 0
1.85 0.05 0
1.8 0.1 0
1.85 0.1 0
1.85 0.05 0
1.9 0.05 0
1.85 0.1 0
1.9 0.1 0
1.9 0.05 0
1.95 0.05 0
1.9 0.1 0
1.95 0.1 0
1.95 0.05 0
2 0.05 0
1.95 0.1 0
2 0.1 0
0.15 0.1 0
0.2 0.1 0
0.15 0.15 0
0.2 0.15 0
0.2 0.1 0
0.25 0.1 0
0.2 0.15 0
0.25 0.15 0
0.25 0.1 0
0.3 0.1 0
0.25 0.15 0
0.3 0.15 0
0.3 0.1 0
0.35 0.1 0
0.3 0.15 0
0.35 0.15 0
1.65 0.1 0
1.7 0.1 0
1.65 0.15 0
1.7 0.15 0
1.7 0.1 0
1.75 0.1 0
1.7 0.15 0
1.75 0.15 0
1.75 0.1 0
1.8 0.1 0
1.75 0.15 0
1.8 0.15 0
1.8 0.1 0
1.85 0.1 0
1.8 0.15 0
1.85 0.15 0
1.85 0.1 0
1.9 0.1 0
1.85 0.15 0
1.9 0.15 0
1.9 0.1 0
1.95 0.1 0
1.9 0.15 0
1.95 0.15 0
1.95 0.1 0
2 0.1 0
1.95 0.15 0
2 0.15 0
0.25 0.15 0
0.3 0.15 0
0.25 0.2 0
0.3 0.2 0
0.3 0.15 0
0.35 0.15 0
0.3 0.2 0
0.35 0.2 0
0.35 0.15 0
0.4 0.15 0
0.35 0.2 0
0.4 0.2 0
0.65 0.15 0
0.7 0.15 0
0.65 0.2 0
0.7 0.2 0
0.7 0.15 0
0.75 0.15 0
0.7 0.2 0
0.75 0.2 0
0.75 0.15 0
0.8 0.15 0
0.75 0.2 0
0.8 0.2 0
0.8 0.15 0
0.85 0.15 0
0.8 0.2 0
0.85 0.2 0
0.85 0.15 0
0.9 0.15 0
0.85 0.2 0
0.9 0.2 0
0.9 0.15 0
0.95 0.15 0
0.9 0.2 0
0.95 0.2 0
0.95 0.15 0
1 0.15 0
0.95 0.2 0
1 0.2 0
1 0.15 0
1.05 0.15 0
1 0.2 0
1.05 0.2 0
1.75 0.15 0
1.8 0.15 0
1.75 0.2 0
1.8 0.2 0
1.8 0.15 0
1.85 0.15 0
1.8 0.2 0
1.85 0.2 0
1.85 0.15 0
1.9 0.15 0
1.85 0.2 0
1.9 0.2 0
1.9 0.15 0
1.95 0.15 0
1.9 0.2 0
1.95 0.2 0
1.95 0.15 0
2 0.15 0
1.95 0.2 0
2 0.2 0
0.35 0.2 0
0.4 0.2 0
0.35 0.25 0
0.4 0.25 0
0.4 0.2 0
0.45 0.2 0
0.4 0.25 0
0.45 0.25 0
0.8 0.2 0
0.85 0.2 0
0.8 0.25 0
0.85 0.25 0
0.85 0.2 0
0.9 0.2 0
0.85 0.25 0
0.9 0.25 0
0.9 0.2 0
0.95 0.2 0
0.9 0.25 0
0.95 0.25 0
0.95 0.2 0
1 0.2 0
0.95 0.25 0
1 0.25 0
1.8 0.2 0
1.85 0.2 0
1.8 0.25 0
1.85 0.25 0
1.85 0.2 0
1.9 0.2 0
1.85 0.25 0
1.9 0.25 0
1.9 0.2 0
1.95 0.2 0
1.9 0.25 0
1.95 0.25 0
1.95 0.2 0
2 0.2 0
1.95 0.25 0
2 0.25 0
0 0.25 0
0.05 0.25 0
0 0.3 0
0.05 0.3 0
0.05 0.25 0
0.1 0.25 0
0.05 0.3 0
0.1 0.3 0
0.1 0.25 0
0.15 0.25 0
0.1 0.3 0
0.15 0.3 0
0.45 0.25 0
0.5 0.25 0
0.45 0.3 0
0.5 0.3 0
0.5 0.25 0
0.55 0.25 0
0.5 0.3 0
0.55 0.3 0
0.9 0.25 0
0.95 0.25 0
0.9 0.3 0
0.95 0.3 0
0.95 0.25 0
1 0.25 0
0.95 0.3 0
1 0.3 0
1.25 0.25 0
1.3 0.25 0
1.25 0.3 0
1.3 0.3 0
1.3 0.25 0
1.35 0.25 0
1.3 0.3 0
1.35 0.3 0
1.9 0.25 0
1.95 0.25 0
1.9 0.3 0
1.95 0.3 0
1.95 0.25 0
2 0.25 0
1.95 0.3 0
2 0.3 0
0 0.3 0
0.05 0.3 0
0 0.35 0
0.05 0.35 0
0.05 0.3 0
0.1 0.3 0
0.05 0.35 0
0.1 0.35 0
0.1 0.3 0
0.15 0.3 0
0.1 0.35 0
0.15 0.35 0
0.15 0.3 0
0.2 0.3 0
0.15 0.35 0
0.2 0.35 0
0.2 0.3 0
0.25 0.3 0
0.2 0.35 0
0.25 0.35 0
0.6 0.3 0
0.65 0.3 0
0.6 0.35 0
0.65 0.35 0
1.2 0.3 0
1.25 0.3 0
1.2 0.35 0
1.25 0.35 0
1.25 0.3 0
1.3 0.3 0
1.25 0.35 0
1.3 0.35 0
1.3 0.3 0
1.35 0.3 0
1.3 0.35 0
1.35 0.35 0
1.35 0.3 0
1.4 0.3 0
1.35 0.35 0
1.4 0.35 0
0 0.35 0
0.05 0.35 0
0 0.4 0
0.05 0.4 0
0.05 0.35 0
0.1 0.35 0
0.05 0.4 0
0.1 0.4 0
0.1 0.35 0
0.15 0.35 0
0.1 0.4 0
0.15 0.4 0
0.15 0.35 0
0.2 0.35 0
0.15 0.4 0
0.2 0.4 0
0.2 0.35 0
0.25 0.35 0
0.2 0.4 0
0.25 0.4 0
0.25 0.35 0
0.3 0.35 0
0.25 0.4 0
0.3 0.4 0
0.3 0.35 0
0.35 0.35 0
0.3 0.4 0
0.35 0.4 0
0.7 0.35 0
0.75 0.35 0
0.7 0.4 0
0.75 0.4 0
0.75 0.35 0
0.8 0.35 0
0.75 0.4 0
0.8 0.4 0
1.2 0.35 0
1.25 0.35 0
1.2 0.4 0
1.25 0.4 0
1.25 0.35 0
1.3 0.35 0
1.25 0.4 0
1.3 0.4 0
1.3 0.35 0
1.35 0.35 0
1.3 0.4 0
1.35 0.4 0
1.35 0.35 0
1.4 0.35 0
1.35 0.4 0
1.4 0.4 0
1.4 0.35 0
1.45 0.35 0
1.4 0.4 0
1.45 0.4 0
1.45 0.35 0
1.5 0.35 0
1.45 0.4 0
1.5 0.4 0
0 0.4 0
0.05 0.4 0
0 0.45 0
0.05 0.45 0
0.05 0.4 0
0.1 0.4 0
0.05 0.45 0
0.1 0.45 0
0.1 0.4 0
0.15 0.4 0
0.1 0.45 0
0.15 0.45 0
0.15 0.4 0
0.2 0.4 0
0.15 0.45 0
0.2 0.45 0
0.2 0.4 0
0.25 0.4 0
0.2 0.45 0
0.25 0.45 0
0.25 0.4 0
0.3 0.4 0
0.25 0.45 0
0.3 0.45 0
0.3 0.4 0
0.35 0.4 0
0.3 0.45 0
0.35 0.45 0
0.35 0.4 0
0.4 0.4 0
0.35 0.45 0
0.4 0.45 0
0.4 0.4 0
0.45 0.4 0
0.4 0.45 0
0.45 0.45 0
0.75 0.4 0
0.8 0.4 0
0.75 0.45 0
0.8 0.45 0
0.8 0.4 0
0.85 0.4 0
0.8 0.45 0
0.85 0.45 0
0.85 0.4 0
0.9 0.4 0
0.85 0.45 0
0.9 0.45 0
1.15 0.4 0
1.2 0.4 0
1.15 0.45 0
1.2 0.45 0
1.2 0.4 0
1.25 0.4 0
1.2 0.45 0
1.25 0.45 0
1.25 0.4 0
1.3 0.4 0
1.25 0.45 0
1.3 0.45 0
1.3 0.4 0
1.35 0.4 0
1.3 0.45 0
1.35 0.45 0
1.35 0.4 0
1.4 0.4 0
1.35 0.45 0
1.4 0.45 0
1.4 0.4 0
1.45 0.4 0
1.4 0.45 0
1.45 0.45 0
1.45 0.4 0
1.5 0.4 0
1.45 0.45 0
1.5 0.45 0
1.5 0.4 0
1.55 0.4 0
1.5 0.45 0
1.55 0.45 0
1.55 0.4 0
1.6 0.4 0
1.55 0.45 0
1.6 0.45 0
1.85 0.4 0
1.9 0.4 0
1.85 0.45 0
1.9 0.45 0
0 0.45 0
0.05 0.45 0
0 0.5 0
0.05 0.5 0
0.05 0.45 0
0.1 0.45 0
0.05 0.5 0
0.1 0.5 0
0.1 0.45 0
0.15 0.45 0
0.1 0.5 0
0.15 0.5 0
0.15 0.45 0
0.2 0.45 0
0.15 0.5 0
0.2 0.5 0
0.2 0.45 0
0.25 0.45 0
0.2 0.5 0
0.25 0.5 0
0.25 0.45 0
0.3 0.45 0
0.25 0.5 0
0.3 0.5 0
0.3 0.45 0
0.35 0.45 0
0.3 0.5 0
0.35 0.5 0
0.35 0.45 0
0.4 0.45 0
0.35 0.5 0
0.4 0.5 0
0.4 0.45 0
0.45 0.45 0
0.4 0.5 0
0.45 0.5 0
0.45 0.45 0
0.5 0.45 0
0.45 0.5 0
0.5 0.5 0
0.5 0.45 0
0.55 0.45 0
0.5 0.5 0
0.55 0.5 0
0.8 0.45 0
0.85 0.45 0
0.8 0.5 0
0.85 0.5 0
0.85 0.45 0
0.9 0.45 0
0.85 0.5 0
0.9 0.5 0
0.9 0.45 0
0.95 0.45 0
0.9 0.5 0
0.95 0.5 0
0.95 0.45 0
1 0.45 0
0.95 0.5 0
1 0.5 0
1.15 0.45 0
1.2 0.45 0
1.15 0.5 0
1.2 0.5 0
1.2 0.45 0
1.25 0.45 0
1.2 0.5 0
1.25 0.5 0
1.25 0.45 0
1.3 0.45 0
1.25 0.5 0
1.3 0.5 0
1.3 0.45 0
1.35 0.45 0
1.3 0.5 0
1.35 0.5 0
1.35 0.45 0
1.4 0.45 0
1.35 0.5 0
1.4 0.5 0
1.4 0.45 0
1.45 0.45 0
1.4 0.5 0
1.45 0.5 0
1.45 0.45 0
1.5 0.45 0
1.45 0.5 0
1.5 0.5 0
1.5 0.45 0
1.55 0.45 0
1.5 0.5 0
1.55 0.5 0
1.55 0.45 0
1.6 0.45 0
1.55 0.5 0
1.6 0.5 0
1.6 0.45 0
1.65 0.45 0
1.6 0.5 0
1.65 0.5 0
1.9 0.45 0
1.95 0.45 0
1.9 0.5 0
1.95 0.5 0
1.95 0.45 0
2 0.45 0
1.95 0.5 0
2 0.5 0
0 0.5 0
0.05 0.5 0
0 0.55 0
0.05 0.55 0
0.05 0.5 0
0.1 0.5 0
0.05 0.55 0
0.1 0.55 0
0.1 0.5 0
0.15 0.5 0
0.1 0.55 0
0.15 0.55 0
0.15 0.5 0
0.2 0.5 0
0.15 0.55 0
0.2 0.55 0
0.2 0.5 0
0.25 0.5 0
0.2 0.55 0
0.25 0.55 0
0.25 0.5 0
0.3 0.5 0
0.25 0.55 0
0.3 0.55 0
0.3 0.5 0
0.35 0.5 0
0.3 0.55 0
0.35 0.55 0
0.35 0.5 0
0.4 0.5 0
0.35 0.55 0
0.4 0.55 0
0.4 0.5 0
0.45 0.5 0
0.4 0.55 0
0.45 0.55 0
0.45 0.5 0
0.5 0.5 0
0.45 0.55 0
0.5 0.55 0
0.5 0.5 0
0.55 0.5 0
0.5 0.55 0
0.55 0.55 0
0.8 0.5 0
0.85 0.5 0
0.8 0.55 0
0.85 0.55 0
0.85 0.5 0
0.9 0.5 0
0.85 0.55 0
0.9 0.55 0
0.9 0.5 0
0.95 0.5 0
0.9 0.55 0
0.95 0.55 0
0.95 0.5 0
1 0.5 0
0.95 0.55 0
1 0.55 0
1.15 0.5 0
1.2 0.5 0
1.15 0.55 0
1.2 0.55 0
1.2 0.5 0
1.25 0.5 0
1.2 0.55 0
1.25 0.55 0
1.25 0.5 0
1.3 0.5 0
1.25 0.55 0
1.3 0.55 0
1.3 0.5 0
1.35 0.5 0
1.3 0.55 0
1.35 0.55 0
1.35 0.5 0
1.4 0.5 0
1.35 0.55 0
1.4 0.55 0
1.4 0.5 0
1.45 0.5 0
1.4 0.55 0
1.45 0.55 0
1.45 0.5 0
1.5 0.5 0
1.45 0.55 0
1.5 0.55 0
1.5 0.5 0
1.55 0.5 0
1.5 0.55 0
1.55 0.55 0
1.55 0.5 0
1.6 0.5 0
1.55 0.55 0
1.6 0.55 0
1.6 0.5 0
1.65 0.5 0
1.6 0.55 0
1.65 0.55 0
1.9 0.5 0
1.95 0.5 0
1.9 0.55 0
1.95 0.55 0
1.95 0.5 0
2 0.5 0
1.95 0.55 0
2 0.55 0
0 0.55 0
0.05 0.55 0
0 0.6 0
0.05 0.6 0
0.05 0.55 0
0.1 0.55 0
0.05 0.6 0
0.1 0.6 0
0.1 0.55 0
0.15 0.55 0
0.1 0.6 0
0.15 0.6 0
0.15 0.55 0
0.2 0.55 0
0.15 0.6 0
0.2 0.6 0
0.2 0.55 0
0.25 0.55 0
0.2 0.6 0
0.25 0.6 0
0.25 0.55 0
0.3 0.55 0
0.25 0.6 0
0.3 0.6 0
0.3 0.55 0
0.35 0.55 0
0.3 0.6 0
0.35 0.6 0
0.35 0.55 0
0.4 0.55 0
0.35 0.6 0
0.4 0.6 0
0.4 0.55 0
0.45 0.55 0
0.4 0.6 0
0.45 0.6 0
0.75 0.55 0
0.8 0.55 0
0.75 0.6 0
0.8 0.6 0
0.8 0.55 0
0.85 0.55 0
0.8 0.6 0
0.85 0.6 0
0.85 0.55 0
0.9 0.55 0
0.85 0.6 0
0.9 0.6 0
1.15 0.55 0
1.2 0.55 0
1.15 0.6 0
1.2 0.6 0
1.2 0.55 0
1.25 0.55 0
1.2 0.6 0
1.25 0.6 0
1.25 0.55 0
1.3 0.55 0
1.25 0.6 0
1.3 0.6 0
1.3 0.55 0
1.35 0.55 0
1.3 0.6 0
1.35 0.6 0
1.35 0.55 0
1.4 0.55 0
1.35 0.6 0
1.4 0.6 0
1.4 0.55 0
1.45 0.55 0
1.4 0.6 0
1.45 0.6 0
1.45 0.55 0
1.5 0.55 0
1.45 0.6 0
1.5 0.6 0
1.5 0.55 0
1.55 0.55 0
1.5 0.6 0
1.55 0.6 0
1.55 0.55 0
1.6 0.55 0
1.55 0.6 0
1.6 0.6 0
1.85 0.55 0
1.9 0.55 0
1.85 0.6 0
1.9 0.6 0
0 0.6 0
0.05 0.6 0
0 0.65 0
0.05 0.65 0
0.05 0.6 0
0.1 0.6 0
0.05 0.65 0
0.1 0.65 0
0.1 0.6 0
[...]
POINT_DATA 18152
SCALARS x_displacement double 1
LOOKUP_TABLE default
0 1.33564 0 0.78035 1.33564 2.35087 0.78035 1.60574 2.35087 3.20053 1.60574 2.33705 3.20053 3.93275 2.33705 2.98843 3.93275 4.57849 2.98843 3.57423 4.57849 5.17041 3.57423 4.10887 5.17041 5.74032 4.10887 4.61187 5.74032 6.30946 4.61187 5.10328 6.30946 6.88121 5.10328 5.59258 6.88121 7.45294 5.59258 6.07984 7.45294 8.02503 6.07984 6.56863 8.02503 8.59572 6.56863 7.0619 8.59572 9.14807 7.0619 7.5659 9.14807 9.66755 7.5659 8.07594 9.66755 10.1629 8.07594 8.59602 10.1629 10.6542 8.59602 9.1228 10.6542 11.1486 9.1228 9.64984 11.1486 11.6458 9.64984 10.1769 11.6458 12.145 10.1769 10.7046 12.145 12.6489 10.7046 11.2293 12.6489 13.1769 11.2293 11.7408 13.1769 13.7581 11.7408 12.237 13.7581 14.3931 12.237 12.7148 14.3931 15.0083 12.7148 13.1739 15.0083 15.4796 13.1739 13.5729 16.9723 17.4656 14.7092 15.0585 17.4656 17.8172 15.0585 15.4989 17.8172 18.1324 15.4989 15.8581 18.1324 18.4019 15.8581 16.1433 18.4019 18.6079 16.1433 16.3708 18.6079 18.7462 16.3708 16.5363 18.7462 18.8191 16.5363 16.6519 18.8191 18.8418 16.6519 16.7201 18.8418 18.8335 16.7201 16.7531 18.8335 18.8185 16.7531 16.7637 18.8185 18.8129 16.7637 16.7668 0 0.78035 0 0.534014 0.78035 1.60574 0.534014 1.09543 1.60574 2.33705 1.09543 1.66054 2.33705 2.98843 1.66054 2.19101 2.98843 3.57423 2.19101 2.68415 3.57423 4.10887 2.68415 3.13155 4.10887 4.61187 3.13155 3.5244 4.61187 5.10328 3.5244 3.90352 12.7148 13.1739 11.1432 11.4843 13.1739 13.5729 11.4843 11.793 13.5729 13.9107 11.793 12.0519 15.4989 15.8581 13.3915 13.7318 15.8581 16.1433 13.7318 14.0246 16.1433 16.3708 14.0246 14.2502 16.3708 16.5363 14.2502 14.4513 16.5363 16.6519 14.4513 14.5866 16.6519 16.7201 14.5866 14.6772 16.7201 16.7531 14.6772 14.7252 16.7531 16.7637 14.7252 14.7408 16.7637 16.7668 14.7408 14.7453 1.66054 2.19101 1.06451 1.48419 2.19101 2.68415 1.48419 1.8911 2.68415 3.13155 1.8911 2.26503 3.13155 3.5244 2.26503 2.58565 14.0246 14.2502 11.8813 12.2796 14.2502 14.4513 12.2796 12.4618 14.4513 14.5866 12.4618 12.6152 14.5866 14.6772 12.6152 12.7224 14.6772 14.7252 12.7224 12.7748 14.7252 14.7408 12.7748 12.7887 14.7408 14.7453 12.7887 12.7874 1.8911 2.26503 1.15973 1.49375 2.26503 2.58565 1.49375 1.81365 2.58565 2.85008 1.81365 2.13684 4.30038 4.49323 2.99611 2.5887 4.49323 5.53302 2.5887 3.60265 5.53302 6.05114 3.60265 4.62122 6.05114 6.65443 4.62122 5.15319 6.65443 7.24442 5.15319 5.73814 7.24442 7.78772 5.73814 6.46116 7.78772 8.54622 6.46116 8.13659 8.54622 9.16061 8.13659 7.01217 12.4618 12.6152 10.5535 10.7395 12.6152 12.7224 10.7395 10.8488 12.7224 12.7748 10.8488 10.9183 12.7748 12.7887 10.9183 10.9338 12.7887 12.7874 10.9338 10.9195 1.81365 2.13684 1.09304 1.4153 2.13684 2.44507 1.4153 1.73362 4.62122 5.15319 4.19097 4.66234 5.15319 5.73814 4.66234 5.79545 5.73814 6.46116 5.79545 5.94754 6.46116 8.13659 5.94754 6.23697 10.7395 10.8488 8.86504 9.05684 10.8488 10.9183 9.05684 9.16872 10.9183 10.9338 9.16872 9.19465 10.9338 10.9195 9.19465 9.16076 0 -0.0562617 0 0.02372 -0.0562617 -0.0310335 0.02372 0.00362189 -0.0310335 -0.0575367 0.00362189 -0.00476038 1.73362 2.04846 1.02295 1.33886 2.04846 2.36529 1.33886 1.65443 5.79545 5.94754 4.05572 4.8089 5.94754 6.23697 4.8089 5.45467 6.45842 6.59383 5.2079 5.18202 6.59383 6.56627 5.18202 5.25615 9.16872 9.19465 7.52465 7.58367 9.19465 9.16076 7.58367 7.50447 0 0.02372 0 0.0194634 0.02372 0.00362189 0.0194634 0.0227063 0.00362189 -0.00476038 0.0227063 0.0263624 -0.00476038 0.0423601 0.0263624 0.039711 0.0423601 0.0781451 0.039711 0.0660683 1.97114 2.29266 1.24494 1.54448 5.22604 5.2079 3.73365 3.78654 5.2079 5.18202 3.78654 3.85581 5.18202 5.25615 3.85581 3.90672 5.25615 5.29168 3.90672 3.9578 0 0.0194634 0 0.0152026 0.0194634 0.0227063 0.0152026 0.0213226 0.0227063 0.0263624 0.0213226 0.0229931 0.0263624 0.039711 0.0229931 0.0226752 0.039711 0.0660683 0.0226752 0.0121463 0.0660683 0.0804904 0.0121463 -0.0140968 0.0804904 0.0865939 -0.0140968 -0.0858342 1.83771 2.13891 1.06422 1.31414 2.13891 2.45434 1.31414 1.57265 3.73365 3.78654 2.38186 2.46705 3.78654 3.85581 2.46705 2.53552 3.85581 3.90672 2.53552 2.59815 3.90672 3.9578 2.59815 2.66228 3.9578 4.08666 2.66228 2.69754 4.08666 4.75783 2.69754 2.47421 0 0.0152026 0 0.00816028 0.0152026 0.0213226 0.00816028 0.0116937 0.0213226 0.0229931 0.0116937 0.0115776 0.0229931 0.0226752 0.0115776 0.00680011 0.0226752 0.0121463 0.00680011 -0.0047683 0.0121463 -0.0140968 -0.0047683 -0.0245433 -0.0140968 -0.0858342 -0.0245433 -0.0333198 -0.0858342 -0.0873846 -0.0333198 -0.0486635 -0.0873846 -0.126735 -0.0486635 -0.0362526 1.31414 1.57265 0.562675 0.744561 1.57265 1.81923 0.744561 0.88918 1.81923 2.0393 0.88918 0.994859 2.29336 2.38186 0.955979 1.12363 2.38186 2.46705 1.12363 1.20746 2.46705 2.53552 1.20746 1.25715 2.53552 2.59815 1.25715 1.29571 2.59815 2.66228 1.29571 1.31664 2.66228 2.69754 1.31664 1.28458 2.69754 2.47421 1.28458 1.28285 2.47421 2.54935 1.28285 1.24684 2.54935 2.39247 1.24684 1.20948 3.66183 3.94028 1.75055 1.96395 0 0.00816028 0 -3.80563e-10 0.00816028 0.0116937 -3.80563e-10 -6.97121e-10 0.0116937 0.0115776 -6.97121e-10 -9.15747e-10 0.0115776 0.00680011 -9.15747e-10 -9.22139e-10 0.00680011 -0.0047683 -9.22139e-10 -4.93385e-10 -0.0047683 -0.0245433 -4.93385e-10 1.73816e-10 -0.0245433 -0.0333198 1.73816e-10 -7.16479e-10 -0.0333198 -0.0486635 -7.16479e-10 -4.21236e-09 -0.0486635 -0.0362526 -4.21236e-09 -6.65718e-09 -0.0362526 0.0262798 -6.65718e-09 -5.84354e-09 0.0262798 0.285892 -5.84354e-09 -3.20597e-09 0.744561 0.88918 1.72551e-12 1.60635e-12 0.88918 0.994859 1.60635e-12 1.59418e-12 0.994859 1.04419 1.59418e-12 1.74077e-12 1.04419 1.02702 1.74077e-12 1.83946e-12 0.955979 1.12363 -3.58285e-10 -6.86686e-10 1.12363 1.20746 -6.86686e-10 1.03053e-10 1.20746 1.25715 1.03053e-10 3.95144e-10 1.25715 1.29571 3.95144e-10 -2.84292e-10 1.29571 1.31664 -2.84292e-10 -6.0563e-10 1.31664 1.28458 -6.0563e-10 -1.98637e-09 1.28458 1.28285 -1.98637e-09 -1.56235e-09 1.28285 1.24684 -1.56235e-09 2.30741e-09 1.24684 1.20948 2.30741e-09 4.32424e-09 1.20948 1.17752 4.32424e-09 3.68439e-09 1.96395 2.1849 -3.21106e-13 -4.25492e-13 2.1849 2.19544 -4.25492e-13 -7.62922e-14 0 -3.80563e-10 0 -0.00816028 -3.80563e-10 -6.97121e-10 -0.00816028 -0.0116937 -6.97121e-10 -9.15747e-10 -0.0116937 -0.0115776 -9.15747e-10 -9.22139e-10 -0.0115776 -0.00680011 -9.22139e-10 -4.93385e-10 -0.00680011 0.0047683 -4.93385e-10 1.73816e-10 0.0047683 0.0245433 1.73816e-10 -7.16479e-10 0.0245433 0.0333197 -7.16479e-10 -4.21236e-09 0.0333197 0.0486635 -4.21236e-09 -6.65718e-09 0.0486635 0.0362526 -6.65718e-09 -5.84354e-09 0.0362526 -0.0262798 -5.84354e-09 -3.20597e-09 -0.0262798 -0.285892 1.72551e-12 1.60635e-12 -0.744561 -0.88918 1.60635e-12 1.59418e-12 -0.88918 -0.994859 1.59418e-12 1.74077e-12 -0.994859 -1.04419 1.74077e-12 1.83946e-12 -1.04419 -1.02702 -3.58285e-10 -6.86686e-10 -0.955979 -1.12363 -6.86686e-10 1.03053e-10 -1.12363 -1.20746 1.03053e-10 3.95144e-10 -1.20746 -1.25715 3.95144e-10 -2.84292e-10 -1.25715 -1.29571 -2.84292e-10 -6.0563e-10 -1.29571 -1.31664 -6.0563e-10 -1.98637e-09 -1.31664 -1.28458 -1.98637e-09 -1.56235e-09 -1.28458 -1.28285 -1.56235e-09 2.30741e-09 -1.28285 -1.24684 2.30741e-09 4.32424e-09 -1.24684 -1.20948 4.32424e-09 3.68439e-09 -1.20948 -1.17752 -3.21106e-13 -4.25492e-13 -1.96395 -2.1849 -4.25492e-13 -7.62922e-14 -2.1849 -2.19544 0 -0.00816028 0 -0.0152026 -0.00816028 -0.0116937 -0.0152026 -0.0213226 -0.0116937 -0.0115776 -0.0213226 -0.0229931 -0.0115776 -0.00680011 -0.0229931 -0.0226752 -0.00680011 0.0047683 -0.0226752 -0.0121463 0.0047683 0.0245433 -0.0121463 0.0140968 0.0245433 0.0333197 0.0140968 0.0858342 0.0333197 0.0486635 0.0858342 0.0873846 0.0486635 0.0362526 0.0873846 0.126735 -0.562675 -0.744561 -1.31414 -1.57265 -0.744561 -0.88918 -1.57265 -1.81923 -0.88918 -0.994859 -1.81923 -2.0393 -0.955979 -1.12363 -2.29336 -2.38186 -1.12363 -1.20746 -2.38186 -2.46705 -1.20746 -1.25715 -2.46705 -2.53552 -1.25715 -1.29571 -2.53552 -2.59815 -1.29571 -1.31664 -2.59815 -2.66228 -1.31664 -1.28458 -2.66228 -2.69754 -1.28458 -1.28285 -2.69754 -2.47421 -1.28285 -1.24684 -2.47421 -2.54935 -1.24684 -1.20948 -2.54935 -2.39247 -1.75055 -1.96395 -3.66183 -3.94028 0 -0.0152026 0 -0.0194634 -0.0152026 -0.0213226 -0.0194634 -0.0227063 -0.0213226 -0.0229931 -0.0227063 -0.0263624 -0.0229931 -0.0226752 -0.0263624 -0.039711 -0.0226752 -0.0121463 -0.039711 -0.0660683 -0.0121463 0.0140968 -0.0660683 -0.0804904 0.0140968 0.0858342 -0.0804904 -0.086594 -1.06422 -1.31414 -1.83771 -2.13891 -1.31414 -1.57265 -2.13891 -2.45434 -2.38186 -2.46705 -3.73365 -3.78654 -2.46705 -2.53552 -3.78654 -3.85581 -2.53552 -2.59815 -3.85581 -3.90672 -2.59815 -2.66228 -3.90672 -3.9578 -2.66228 -2.69754 -3.9578 -4.08666 -2.69754 -2.47421 -4.08666 -4.75783 0 -0.0194634 0 -0.02372 -0.0194634 -0.0227063 -0.02372 -0.00362189 -0.0227063 -0.0263624 -0.00362189 0.00476038 -0.0263624 -0.039711 0.00476038 -0.0423601 -0.039711 -0.0660683 -0.0423601 -0.0781451 -1.24494 -1.54448 -1.97114 -2.29266 -3.73365 -3.78654 -5.22604 -5.2079 -3.78654 -3.85581 -5.2079 -5.18202 -3.85581 -3.90672 -5.18202 -5.25615 -3.90672 -3.9578 -5.25615 -5.29168 0 -0.02372 0 0.0562617 -0.02372 -0.00362189 0.0562617 0.0310335 -0.00362189 0.00476038 0.0310335 0.0575367 -1.02295 -1.33886 -1.73362 -2.04846 -1.33886 -1.65443 -2.04846 -2.36529 -4.05572 -4.8089 -5.79545 -5.94754 -4.8089 -5.45467 -5.94754 -6.23697 -5.2079 -5.18202 -6.45842 -6.59383 -5.18202 -5.25615 -6.59383 -6.56627 -7.52465 -7.58367 -9.16872 -9.19465 -7.58367 -7.50447 -9.19465 -9.16076 -1.09304 -1.4153 -1.81365 -2.13684 -1.4153 -1.73362 -2.13684 -2.44507 -4.19097 -4.66234 -4.62122 -5.15319 -4.66234 -5.79545 -5.15319 -5.73814 -5.79545 -5.94754 -5.73814 -6.46116 -5.94754 -6.23697 -6.46116 -8.13659 -8.86504 -9.05684 -10.7395 -10.8488 -9.05684 -9.16872 -10.8488 -10.9183 -9.16872 -9.19465 -10.9183 -10.9338 -9.19465 -9.16076 -10.9338 -10.9195 -1.15973 -1.49375 -1.8911 -2.26503 -1.49375 -1.81365 -2.26503 -2.58565 -1.81365 -2.13684 -2.58565 -2.85008 -2.99611 -2.5887 -4.30038 -4.49323 -2.5887 -3.60265 -4.49323 -5.53302 -3.60265 -4.62122 -5.53302 -6.05114 -4.62122 -5.15319 -6.05114 -6.65443 -5.15319 -5.73814 -6.65443 -7.24442 -5.73814 -6.46116 -7.24442 -7.78772 -6.46116 -8.13659 -7.78772 -8.54622 -8.13659 -7.01217 -8.54622 -9.16061 -10.5535 -10.7395 -12.4618 -12.6152 -10.7395 -10.8488 -12.6152 -12.7224 -10.8488 -10.9183 -12.7224 -12.7748 -10.9183 -10.9338 -12.7748 -12.7887 -10.9338 -10.9195 -12.7887 -12.7874 -1.06451 -1.48419 -1.66054 -2.19101 -1.48419 -1.8911 -2.19101 -2.68415 -1.8911 -2.26503 -2.68415 -3.13155 -2.26503 -2.58565 -3.13155 -3.5244 -11.8813 -12.2796 -14.0246 -14.2502 -12.2796 -12.4618 -14.2502 -14.4513 -12.4618 -12.6152 -14.4513 -14.5866 -12.6152 -12.7224 -14.5866 -14.6772 -12.7224 -12.7748 -14.6772 -14.7252 -12.7748 -12.7887 -14.7252 -14.7408 -12.7887 -12.7874 -14.7408 -14.7453 0 -0.534014 0 -0.78035 -0.534014 -1.09543 -0.78035 -1.60574 -1.09543 -1.66054 -1.60574 -2.33705 -1.66054 -2.19101 -2.33705 -2.98843 -2.19101 -2.68415 -2.98843 -3.57423 -2.68415 -3.13155 -3.57423 -4.10887 -3.13155 -3.5244 -4.10887 -4.61187 -3.5244 -3.90352 -4.61187 -5.10328 -11.1432 -11.4843 -12.7148 -13.1739 -11.4843 -11.793 -13.1739 -13.5729 -11.793 -12.0519 -13.5729 -13.9107 -13.3915 -13.7318 -15.4989 -15.8581 -13.7318 -14.0246 -15.8581 -16.1433 -14.0246 -14.2502 -16.1433 -16.3708 -14.2502 -14.4513 -16.3708 -16.5363 -14.4513 -14.5866 -16.5363 -16.6519 -14.5866 -14.6772 -16.6519 -16.7201 -14.6772 -14.7252 -16.7201 -16.7531 -14.7252 -14.7408 -16.7531 -16.7637 -14.7408 -14.7453 -16.7637 -16.7668 0 -0.78035 0 -1.33564 -0.78035 -1.60574 -1.33564 -2.35087 -1.60574 -2.33705 -2.35087 -3.20053 -2.33705 -2.98843 -3.20053 -3.93275 -2.98843 -3.57423 -3.93275 -4.57849 -3.57423 -4.10887 -4.57849 -5.17041 -4.10887 -4.61187 -5.17041 -5.74032 -4.61187 -5.10328 -5.74032 -6.30946 -5.10328 -5.59258 -6.30946 -6.88121 -5.59258 -6.07984 -6.88121 -7.45294 -6.07984 -6.56863 -7.45294 -8.02503 -6.56863 -7.0619 -8.02503 -8.59572 -7.0619 -7.5659 -8.59572 -9.14807 -7.5659 -8.07594 -9.14807 -9.66755 -8.07594 -8.59602 -9.66755 -10.1629 -8.59602 -9.1228 -10.1629 -10.6542 -9.1228 -9.64984 -10.6542 -11.1486 -9.64984 -10.1769 -11.1486 -11.6458 -10.1769 -10.7046 -11.6458 -12.145 -10.7046 -11.2293 -12.145 -12.6489 -11.2293 -11.7408 -12.6489 -13.1769 -11.7408 -12.237 -13.1769 -13.7581 -12.237 -12.7148 -13.7581 -14.3931 -12.7148 -13.1739 -14.3931 -15.0083 -13.1739 -13.5729 -15.0083 -15.4796 -14.7092 -15.0585 -16.9723 -17.4656 -15.0585 -15.4989 -17.4656 -17.8172 -15.4989 -15.8581 -17.8172 -18.1324 -15.8581 -16.1433 -18.1324 -18.4019 -16.1433 -16.3708 -18.4019 -18.6079 -16.3708 -16.5363 -18.6079 -18.7462 -16.5363 -16.6519 -18.7462 -18.8191 -16.6519 -16.7201 -18.8191 -18.8418 -16.7201 -16.7531 -18.8418 -18.8335 -16.7531 -16.7637 -18.8335 -18.8185 -16.7637 -16.7668 -18.8185 -18.8129 16.6846 16.0451 15.1901 15.404 5.59258 5.83621 4.94718 5.16936 5.83621 6.07984 5.16936 5.39288 4.94718 5.16936 4.29758 4.50179 5.16936 5.39288 4.50179 4.70618 6.07984 6.32423 5.39288 5.61677 6.32423 6.56863 5.61677 5.84068 5.39288 5.61677 4.70618 4.91018 5.61677 5.84068 4.91018 5.11376 6.56863 6.81527 5.84068 6.0656 6.81527 7.0619 6.0656 6.2931 7.0619 7.3139 6.2931 6.52577 7.3139 7.5659 6.52577 6.76894 7.5659 7.82092 6.76894 7.01791 7.82092 8.07594 7.01791 7.27605 8.07594 8.33598 7.27605 7.54195 8.33598 8.59602 7.54195 7.81313 8.59602 8.85941 7.81313 8.08507 8.85941 9.1228 8.08507 8.35699 9.1228 9.38632 8.35699 8.62863 9.38632 9.64984 8.62863 8.89994 9.64984 9.91339 8.89994 9.17102 9.91339 10.1769 9.17102 9.44182 10.1769 10.4408 9.44182 9.71241 10.4408 10.7046 9.71241 9.98265 10.7046 10.9669 9.98265 10.2525 10.9669 11.2293 10.2525 10.5197 11.2293 11.485 10.5197 10.7804 11.485 11.7408 10.7804 11.0284 11.7408 11.9889 11.0284 11.2684 11.9889 12.237 11.2684 11.4889 13.2418 13.3723 12.298 12.4223 14.7092 14.8839 13.5995 13.5613 14.8839 15.0585 13.5613 13.9799 0 0.267007 0 0.200363 0.267007 0.534014 0.200363 0.416223 0.534014 0.814721 0.416223 0.643166 0.814721 1.09543 0.643166 0.880429 0.416223 0.643166 0.282833 0.474083 0.643166 0.880429 0.474083 0.656156 5.06079 5.23293 4.30038 4.39681 5.23293 5.63002 4.39681 4.49323 5.63002 5.96151 4.49323 5.01313 5.96151 6.24979 5.01313 5.53302 6.24979 6.5399 5.53302 5.79208 6.5399 6.82757 5.79208 6.05114 6.82757 7.11498 6.05114 6.35279 7.11498 7.40197 6.35279 6.65443 7.40197 7.68816 6.65443 6.94942 7.68816 7.97318 6.94942 7.24442 7.97318 8.25701 7.24442 7.51607 8.25701 8.53965 7.51607 7.78772 8.53965 8.82168 7.78772 8.16697 8.82168 9.09701 8.16697 8.54622 9.09701 9.47726 8.54622 8.85342 9.47726 9.78335 8.85342 9.16061 9.78335 9.92773 9.16061 9.17744 10.961 11.1432 10.3161 10.4434 11.793 11.9225 10.8661 10.9743 11.9225 12.0519 10.9743 11.0911 13.3915 13.5617 12.4053 12.6573 13.5617 13.7318 12.6573 12.6937 12.6573 12.6937 11.44 11.4442 0 0.157648 0 -0.207599 0.856336 1.06451 0.586608 0.772514 1.06451 1.27435 0.772514 0.957067 1.27435 1.48419 0.957067 1.14636 3.60794 3.946 3.22932 3.13864 3.946 3.98113 3.13864 3.42415 3.98113 4.11132 3.42415 3.58199 9.16061 9.17744 8.08639 8.61422 8.08639 8.61422 7.01217 7.93581 9.70726 9.74009 8.96967 8.99033 8.96967 8.99033 8.22871 8.23871 10.3861 10.5239 9.42327 9.56849 10.5239 10.6619 9.56849 9.70942 10.2653 10.3972 9.31681 9.45686 10.3972 10.5335 9.45686 9.59714 12.2873 11.8813 10.8967 11.0523 0.105568 0.349812 -0.0310335 -0.0442851 0.349812 0.358149 -0.0442851 -0.0575367 1.15973 1.32674 0.798727 0.960431 1.32674 1.49375 0.960431 1.12332 2.39972 2.55066 2.04846 2.20687 2.55066 2.71052 2.20687 2.36529 2.99611 2.79241 3.2025 3.554 2.79241 2.5887 3.554 3.98398 7.36945 7.41927 6.62411 6.45842 7.15472 7.65078 6.59383 6.58005 7.65078 7.66016 6.58005 6.56627 8.9029 9.04177 7.95504 8.09181 8.92638 9.07337 7.98001 8.1199 10.462 10.5535 9.54258 9.74413 -0.0923015 0.170976 0.0423601 0.0602526 0.170976 0.270151 0.0602526 0.0781451 1.09304 1.25417 0.744412 0.907842 1.25417 1.4153 0.907842 1.06187 2.33539 2.49786 1.97114 2.1319 2.49786 2.66247 2.1319 2.29266 4.179 4.19097 3.35568 3.36869 4.19097 4.42666 3.36869 3.84038 4.42666 4.66234 3.84038 4.35376 6.23697 6.57846 5.84582 6.03538 5.84582 6.03538 5.45467 5.41549 6.7889 6.78582 6.0607 6.0628 6.0607 6.0628 5.33843 5.34233 5.84124 6.16055 5.29168 4.99474 7.56087 7.6993 6.60687 6.74591 7.58409 7.71731 6.6377 6.778 8.86504 8.96094 7.96707 8.1072 8.96094 9.05684 8.1072 8.20141 0.153599 0.200599 0.0804904 0.0835422 0.200599 0.259355 0.0835422 0.0865939 1.02295 1.1809 0.658807 0.820224 1.1809 1.33886 0.820224 0.974316 2.61978 2.78817 2.23092 2.39386 2.78817 2.98168 2.39386 2.56288 2.23092 2.39386 1.83771 1.98831 2.39386 2.56288 1.98831 2.13891 2.56288 2.72572 2.13891 2.29662 2.72572 2.90153 2.29662 2.45434 4.05572 4.43231 3.55084 3.44845 4.43231 4.8089 3.44845 4.33496 5.26167 5.22604 4.33786 4.47984 4.33786 4.47984 3.79641 3.73365 4.38343 4.87141 4.75783 3.1425 6.08299 6.22037 5.12737 5.27531 6.22037 6.35935 5.27531 5.4135 5.97588 6.11467 5.03044 5.16995 6.11467 6.2672 5.16995 5.31077 7.52465 7.55416 6.7117 6.78848 7.55416 7.58367 6.78848 6.8353 0.253417 0.167942 -0.443651 -0.125709 -0.443651 -0.125709 -0.0873846 -0.10706 -0.125709 0.26254 -0.10706 -0.126735 0.26254 0.288441 -0.126735 -0.196409 1.09283 1.24494 0.736202 0.880312 2.76785 2.92761 2.29384 2.43363 2.29384 2.43363 1.81923 1.92926 2.43363 2.56605 1.92926 2.0393 2.56605 2.7107 2.0393 2.14305 3.87654 3.87467 3.13611 3.13662 3.13611 3.13662 2.39708 2.40621 4.09212 4.01707 2.80287 3.08223 2.80287 3.08223 2.54935 2.47091 3.08223 3.36399 2.47091 2.39247 4.6374 4.78006 3.66183 3.80106 4.78006 4.93067 3.80106 3.94028 6.10346 6.06039 5.2519 5.25944 -0.237716 0.136425 0.285892 -0.779294 0.936581 1.06422 0.576794 0.696743 2.32762 2.29336 1.4783 1.62467 1.4783 1.62467 0.90526 0.955979 1.65488 1.88209 1.17752 1.14931 3.27701 3.40549 2.34822 2.46269 3.16219 3.23867 2.1849 2.19017 3.23867 3.26294 2.19017 2.19544 -0.414403 0.0928436 -2.6234e-11 2.75538e-12 0.0928436 0.11469 2.75538e-12 2.30925e-12 1.02702 1.02337 0.51351 0.471722 0.51351 0.471722 1.83946e-12 1.73733e-12 0.354593 0.659948 4.75711e-10 9.35769e-11 1.6528 1.75055 0.770167 0.845004 -2.6234e-11 2.75538e-12 0.414403 -0.0928436 2.75538e-12 2.30925e-12 -0.0928436 -0.11469 1.83946e-12 1.73733e-12 -0.51351 -0.471722 -0.51351 -0.471722 -1.02702 -1.02337 4.75711e-10 9.35769e-11 -0.354593 -0.659948 -0.770167 -0.845004 -1.6528 -1.75055 -0.285892 0.779294 0.237716 -0.136425 -0.576794 -0.696743 -0.936581 -1.06422 -0.90526 -0.955979 -1.4783 -1.62467 -1.4783 -1.62467 -2.32762 -2.29336 -1.17752 -1.14931 -1.65488 -1.88209 -2.34822 -2.46269 -3.27701 -3.40549 -2.1849 -2.19017 -3.16219 -3.23867 -2.19017 -2.19544 -3.23867 -3.26294 0.0873846 0.10706 0.443651 0.125709 0.10706 0.126735 0.125709 -0.26254 0.443651 0.125709 -0.253417 -0.167942 0.126735 0.196409 -0.26254 -0.288441 -0.736202 -0.880312 -1.09283 -1.24494 -1.81923 -1.92926 -2.29384 -2.43363 -1.92926 -2.0393 -2.43363 -2.56605 -2.29384 -2.43363 -2.76785 -2.92761 -2.0393 -2.14305 -2.56605 -2.7107 -2.39708 -2.40621 -3.13611 -3.13662 -3.13611 -3.13662 -3.87654 -3.87467 -2.54935 -2.47091 -2.80287 -3.08223 -2.47091 -2.39247 -3.08223 -3.36399 -2.80287 -3.08223 -4.09212 -4.01707 -3.66183 -3.80106 -4.6374 -4.78006 -3.80106 -3.94028 -4.78006 -4.93067 -5.2519 -5.25944 -6.10346 -6.06039 -0.0804904 -0.0835422 -0.153599 -0.200599 -0.0835422 -0.086594 -0.200599 -0.259355 -0.658807 -0.820224 -1.02295 -1.1809 -0.820224 -0.974316 -1.1809 -1.33886 -1.83771 -1.98831 -2.23092 -2.39386 -1.98831 -2.13891 -2.39386 -2.56288 -2.23092 -2.39386 -2.61978 -2.78817 -2.39386 -2.56288 -2.78817 -2.98168 -2.13891 -2.29662 -2.56288 -2.72572 -2.29662 -2.45434 -2.72572 -2.90153 -3.55084 -3.44845 -4.05572 -4.43231 -3.44845 -4.33496 -4.43231 -4.8089 -3.79641 -3.73365 -4.33786 -4.47984 -4.33786 -4.47984 -5.26167 -5.22604 -4.75783 -3.1425 -4.38343 -4.87141 -5.12737 -5.27531 -6.08299 -6.22037 -5.27531 -5.4135 -6.22037 -6.35935 -5.03044 -5.16995 -5.97588 -6.11467 -5.16995 -5.31077 -6.11467 -6.2672 -6.7117 -6.78848 -7.52465 -7.55416 -6.78848 -6.8353