# vtk DataFile Version 3.0
#This file was generated by the deal.II library on 2015/9/2 at 7:54:30
ASCII
DATASET UNSTRUCTURED_GRID

POINTS 41912 double
0 0 0
0.05 0 0
0 0.05 0
0.05 0.05 0
0.05 0 0
0.1 0 0
0.05 0.05 0
0.1 0.05 0
0.1 0 0
0.15 0 0
0.1 0.05 0
0.15 0.05 0
0.15 0 0
0.2 0 0
0.15 0.05 0
0.2 0.05 0
0.2 0 0
0.25 0 0
0.2 0.05 0
0.25 0.05 0
0.25 0 0
0.3 0 0
0.25 0.05 0
0.3 0.05 0
0.3 0 0
0.35 0 0
0.3 0.05 0
0.35 0.05 0
0.35 0 0
0.4 0 0
0.35 0.05 0
0.4 0.05 0
0.4 0 0
0.45 0 0
0.4 0.05 0
0.45 0.05 0
0.45 0 0
0.5 0 0
0.45 0.05 0
0.5 0.05 0
0.5 0 0
0.55 0 0
0.5 0.05 0
0.55 0.05 0
0.55 0 0
0.6 0 0
0.55 0.05 0
0.6 0.05 0
0.6 0 0
0.65 0 0
0.6 0.05 0
0.65 0.05 0
0.65 0 0
0.7 0 0
0.65 0.05 0
0.7 0.05 0
0.7 0 0
0.75 0 0
0.7 0.05 0
0.75 0.05 0
0.75 0 0
0.8 0 0
0.75 0.05 0
0.8 0.05 0
0.8 0 0
0.85 0 0
0.8 0.05 0
0.85 0.05 0
0.85 0 0
0.9 0 0
0.85 0.05 0
0.9 0.05 0
0.9 0 0
0.95 0 0
0.9 0.05 0
0.95 0.05 0
0.95 0 0
1 0 0
0.95 0.05 0
1 0.05 0
1 0 0
1.05 0 0
1 0.05 0
1.05 0.05 0
1.05 0 0
1.1 0 0
1.05 0.05 0
1.1 0.05 0
1.1 0 0
1.15 0 0
1.1 0.05 0
1.15 0.05 0
1.15 0 0
1.2 0 0
1.15 0.05 0
1.2 0.05 0
1.2 0 0
1.25 0 0
1.2 0.05 0
1.25 0.05 0
1.45 0 0
1.5 0 0
1.45 0.05 0
1.5 0.05 0
1.5 0 0
1.55 0 0
1.5 0.05 0
1.55 0.05 0
1.55 0 0
1.6 0 0
1.55 0.05 0
1.6 0.05 0
1.6 0 0
1.65 0 0
1.6 0.05 0
1.65 0.05 0
1.65 0 0
1.7 0 0
1.65 0.05 0
1.7 0.05 0
1.7 0 0
1.75 0 0
1.7 0.05 0
1.75 0.05 0
1.75 0 0
1.8 0 0
1.75 0.05 0
1.8 0.05 0
1.8 0 0
1.85 0 0
1.8 0.05 0
1.85 0.05 0
1.85 0 0
1.9 0 0
1.85 0.05 0
1.9 0.05 0
1.9 0 0
1.95 0 0
1.9 0.05 0
1.95 0.05 0
1.95 0 0
2 0 0
1.95 0.05 0
2 0.05 0
0 0.05 0
0.05 0.05 0
0 0.1 0
0.05 0.1 0
0.05 0.05 0
0.1 0.05 0
0.05 0.1 0
0.1 0.1 0
0.1 0.05 0
0.15 0.05 0
0.1 0.1 0
0.15 0.1 0
0.15 0.05 0
0.2 0.05 0
0.15 0.1 0
0.2 0.1 0
0.2 0.05 0
0.25 0.05 0
0.2 0.1 0
0.25 0.1 0
0.25 0.05 0
0.3 0.05 0
0.25 0.1 0
0.3 0.1 0
0.3 0.05 0
0.35 0.05 0
0.3 0.1 0
0.35 0.1 0
1.15 0.05 0
1.2 0.05 0
1.15 0.1 0
1.2 0.1 0
1.2 0.05 0
1.25 0.05 0
1.2 0.1 0
1.25 0.1 0
1.55 0.05 0
1.6 0.05 0
1.55 0.1 0
1.6 0.1 0
1.6 0.05 0
1.65 0.05 0
1.6 0.1 0
1.65 0.1 0
1.65 0.05 0
1.7 0.05 0
1.65 0.1 0
1.7 0.1 0
1.7 0.05 0
1.75 0.05 0
1.7 0.1 0
1.75 0.1 0
1.75 0.05 0
1.8 0.05 0
1.75 0.1 0
1.8 0.1 0
1.8 0.05 0
1.85 0.05 0
1.8 0.1 0
1.85 0.1 0
1.85 0.05 0
1.9 0.05 0
1.85 0.1 0
1.9 0.1 0
1.9 0.05 0
1.95 0.05 0
1.9 0.1 0
1.95 0.1 0
1.95 0.05 0
2 0.05 0
1.95 0.1 0
2 0.1 0
0.15 0.1 0
0.2 0.1 0
0.15 0.15 0
0.2 0.15 0
0.2 0.1 0
0.25 0.1 0
0.2 0.15 0
0.25 0.15 0
0.25 0.1 0
0.3 0.1 0
0.25 0.15 0
0.3 0.15 0
0.3 0.1 0
0.35 0.1 0
0.3 0.15 0
0.35 0.15 0
1.65 0.1 0
1.7 0.1 0
1.65 0.15 0
1.7 0.15 0
1.7 0.1 0
1.75 0.1 0
1.7 0.15 0
1.75 0.15 0
1.75 0.1 0
1.8 0.1 0
1.75 0.15 0
1.8 0.15 0
1.8 0.1 0
1.85 0.1 0
1.8 0.15 0
1.85 0.15 0
1.85 0.1 0
1.9 0.1 0
1.85 0.15 0
1.9 0.15 0
1.9 0.1 0
1.95 0.1 0
1.9 0.15 0
1.95 0.15 0
1.95 0.1 0
2 0.1 0
1.95 0.15 0
2 0.15 0
0.3 0.15 0
0.35 0.15 0
0.3 0.2 0
0.35 0.2 0
1.75 0.15 0
1.8 0.15 0
1.75 0.2 0
1.8 0.2 0
1.8 0.15 0
1.85 0.15 0
1.8 0.2 0
1.85 0.2 0
1.85 0.15 0
1.9 0.15 0
1.85 0.2 0
1.9 0.2 0
1.9 0.15 0
1.95 0.15 0
1.9 0.2 0
1.95 0.2 0
1.95 0.15 0
2 0.15 0
1.95 0.2 0
2 0.2 0
0.4 0.2 0
0.45 0.2 0
0.4 0.25 0
0.45 0.25 0
0.8 0.2 0
0.85 0.2 0
0.8 0.25 0
0.85 0.25 0
0.85 0.2 0
0.9 0.2 0
0.85 0.25 0
0.9 0.25 0
0.9 0.2 0
0.95 0.2 0
0.9 0.25 0
0.95 0.25 0
0.95 0.2 0
1 0.2 0
0.95 0.25 0
1 0.25 0
1.8 0.2 0
1.85 0.2 0
1.8 0.25 0
1.85 0.25 0
1.85 0.2 0
1.9 0.2 0
1.85 0.25 0
1.9 0.25 0
1.9 0.2 0
1.95 0.2 0
1.9 0.25 0
1.95 0.25 0
1.95 0.2 0
2 0.2 0
1.95 0.25 0
2 0.25 0
0 0.25 0
0.05 0.25 0
0 0.3 0
0.05 0.3 0
0.05 0.25 0
0.1 0.25 0
0.05 0.3 0
0.1 0.3 0
0.1 0.25 0
0.15 0.25 0
0.1 0.3 0
0.15 0.3 0
0.95 0.25 0
1 0.25 0
0.95 0.3 0
1 0.3 0
1.25 0.25 0
1.3 0.25 0
1.25 0.3 0
1.3 0.3 0
1.3 0.25 0
1.35 0.25 0
1.3 0.3 0
1.35 0.3 0
1.9 0.25 0
1.95 0.25 0
1.9 0.3 0
1.95 0.3 0
1.95 0.25 0
2 0.25 0
1.95 0.3 0
2 0.3 0
0 0.3 0
0.05 0.3 0
0 0.35 0
0.05 0.35 0
0.05 0.3 0
0.1 0.3 0
0.05 0.35 0
0.1 0.35 0
0.1 0.3 0
0.15 0.3 0
0.1 0.35 0
0.15 0.35 0
0.15 0.3 0
0.2 0.3 0
0.15 0.35 0
0.2 0.35 0
0.2 0.3 0
0.25 0.3 0
0.2 0.35 0
0.25 0.35 0
0.6 0.3 0
0.65 0.3 0
0.6 0.35 0
0.65 0.35 0
1.2 0.3 0
1.25 0.3 0
1.2 0.35 0
1.25 0.35 0
1.25 0.3 0
1.3 0.3 0
1.25 0.35 0
1.3 0.35 0
1.3 0.3 0
1.35 0.3 0
1.3 0.35 0
1.35 0.35 0
1.35 0.3 0
1.4 0.3 0
1.35 0.35 0
1.4 0.35 0
0 0.35 0
0.05 0.35 0
0 0.4 0
0.05 0.4 0
0.05 0.35 0
0.1 0.35 0
0.05 0.4 0
0.1 0.4 0
0.1 0.35 0
0.15 0.35 0
0.1 0.4 0
0.15 0.4 0
0.15 0.35 0
0.2 0.35 0
0.15 0.4 0
0.2 0.4 0
0.2 0.35 0
0.25 0.35 0
0.2 0.4 0
0.25 0.4 0
0.25 0.35 0
0.3 0.35 0
0.25 0.4 0
0.3 0.4 0
0.3 0.35 0
0.35 0.35 0
0.3 0.4 0
0.35 0.4 0
0.7 0.35 0
0.75 0.35 0
0.7 0.4 0
0.75 0.4 0
1.2 0.35 0
1.25 0.35 0
1.2 0.4 0
1.25 0.4 0
1.25 0.35 0
1.3 0.35 0
1.25 0.4 0
1.3 0.4 0
1.3 0.35 0
1.35 0.35 0
1.3 0.4 0
1.35 0.4 0
1.35 0.35 0
1.4 0.35 0
1.35 0.4 0
1.4 0.4 0
1.4 0.35 0
1.45 0.35 0
1.4 0.4 0
1.45 0.4 0
1.45 0.35 0
1.5 0.35 0
1.45 0.4 0
1.5 0.4 0
0 0.4 0
0.05 0.4 0
0 0.45 0
0.05 0.45 0
0.05 0.4 0
0.1 0.4 0
0.05 0.45 0
0.1 0.45 0
0.1 0.4 0
0.15 0.4 0
0.1 0.45 0
0.15 0.45 0
0.15 0.4 0
0.2 0.4 0
0.15 0.45 0
0.2 0.45 0
0.2 0.4 0
0.25 0.4 0
0.2 0.45 0
0.25 0.45 0
0.25 0.4 0
0.3 0.4 0
0.25 0.45 0
0.3 0.45 0
0.3 0.4 0
0.35 0.4 0
0.3 0.45 0
0.35 0.45 0
0.35 0.4 0
0.4 0.4 0
0.35 0.45 0
0.4 0.45 0
0.4 0.4 0
0.45 0.4 0
0.4 0.45 0
0.45 0.45 0
0.75 0.4 0
0.8 0.4 0
0.75 0.45 0
0.8 0.45 0
0.8 0.4 0
0.85 0.4 0
0.8 0.45 0
0.85 0.45 0
0.85 0.4 0
0.9 0.4 0
0.85 0.45 0
0.9 0.45 0
1.15 0.4 0
1.2 0.4 0
1.15 0.45 0
1.2 0.45 0
1.2 0.4 0
1.25 0.4 0
1.2 0.45 0
1.25 0.45 0
1.25 0.4 0
1.3 0.4 0
1.25 0.45 0
1.3 0.45 0
1.3 0.4 0
1.35 0.4 0
1.3 0.45 0
1.35 0.45 0
1.35 0.4 0
1.4 0.4 0
1.35 0.45 0
1.4 0.45 0
1.4 0.4 0
1.45 0.4 0
1.4 0.45 0
1.45 0.45 0
1.45 0.4 0
1.5 0.4 0
1.45 0.45 0
1.5 0.45 0
1.5 0.4 0
1.55 0.4 0
1.5 0.45 0
1.55 0.45 0
1.55 0.4 0
1.6 0.4 0
1.55 0.45 0
1.6 0.45 0
0 0.45 0
0.05 0.45 0
0 0.5 0
0.05 0.5 0
0.05 0.45 0
0.1 0.45 0
0.05 0.5 0
0.1 0.5 0
0.1 0.45 0
0.15 0.45 0
0.1 0.5 0
0.15 0.5 0
0.15 0.45 0
0.2 0.45 0
0.15 0.5 0
0.2 0.5 0
0.2 0.45 0
0.25 0.45 0
0.2 0.5 0
0.25 0.5 0
0.25 0.45 0
0.3 0.45 0
0.25 0.5 0
0.3 0.5 0
0.3 0.45 0
0.35 0.45 0
0.3 0.5 0
0.35 0.5 0
0.35 0.45 0
0.4 0.45 0
0.35 0.5 0
0.4 0.5 0
0.4 0.45 0
0.45 0.45 0
0.4 0.5 0
0.45 0.5 0
0.45 0.45 0
0.5 0.45 0
0.45 0.5 0
0.5 0.5 0
0.5 0.45 0
0.55 0.45 0
0.5 0.5 0
0.55 0.5 0
0.8 0.45 0
0.85 0.45 0
0.8 0.5 0
0.85 0.5 0
0.85 0.45 0
0.9 0.45 0
0.85 0.5 0
0.9 0.5 0
0.9 0.45 0
0.95 0.45 0
0.9 0.5 0
0.95 0.5 0
0.95 0.45 0
1 0.45 0
0.95 0.5 0
1 0.5 0
1.15 0.45 0
1.2 0.45 0
1.15 0.5 0
1.2 0.5 0
1.2 0.45 0
1.25 0.45 0
1.2 0.5 0
1.25 0.5 0
1.25 0.45 0
1.3 0.45 0
1.25 0.5 0
1.3 0.5 0
1.3 0.45 0
1.35 0.45 0
1.3 0.5 0
1.35 0.5 0
1.35 0.45 0
1.4 0.45 0
1.35 0.5 0
1.4 0.5 0
1.4 0.45 0
1.45 0.45 0
1.4 0.5 0
1.45 0.5 0
1.45 0.45 0
1.5 0.45 0
1.45 0.5 0
1.5 0.5 0
1.5 0.45 0
1.55 0.45 0
1.5 0.5 0
1.55 0.5 0
1.55 0.45 0
1.6 0.45 0
1.55 0.5 0
1.6 0.5 0
1.6 0.45 0
1.65 0.45 0
1.6 0.5 0
1.65 0.5 0
1.9 0.45 0
1.95 0.45 0
1.9 0.5 0
1.95 0.5 0
0 0.5 0
0.05 0.5 0
0 0.55 0
0.05 0.55 0
0.05 0.5 0
0.1 0.5 0
0.05 0.55 0
0.1 0.55 0
0.1 0.5 0
0.15 0.5 0
0.1 0.55 0
0.15 0.55 0
0.15 0.5 0
0.2 0.5 0
0.15 0.55 0
0.2 0.55 0
0.2 0.5 0
0.25 0.5 0
0.2 0.55 0
0.25 0.55 0
0.25 0.5 0
0.3 0.5 0
0.25 0.55 0
0.3 0.55 0
0.3 0.5 0
0.35 0.5 0
0.3 0.55 0
0.35 0.55 0
0.35 0.5 0
0.4 0.5 0
0.35 0.55 0
0.4 0.55 0
0.4 0.5 0
0.45 0.5 0
0.4 0.55 0
0.45 0.55 0
0.45 0.5 0
0.5 0.5 0
0.45 0.55 0
0.5 0.55 0
0.5 0.5 0
0.55 0.5 0
0.5 0.55 0
0.55 0.55 0
0.8 0.5 0
0.85 0.5 0
0.8 0.55 0
0.85 0.55 0
0.85 0.5 0
0.9 0.5 0
0.85 0.55 0
0.9 0.55 0
0.9 0.5 0
0.95 0.5 0
0.9 0.55 0
0.95 0.55 0
0.95 0.5 0
1 0.5 0
0.95 0.55 0
1 0.55 0
1.15 0.5 0
1.2 0.5 0
1.15 0.55 0
1.2 0.55 0
1.2 0.5 0
1.25 0.5 0
1.2 0.55 0
1.25 0.55 0
1.25 0.5 0
1.3 0.5 0
1.25 0.55 0
1.3 0.55 0
1.3 0.5 0
1.35 0.5 0
1.3 0.55 0
1.35 0.55 0
1.35 0.5 0
1.4 0.5 0
1.35 0.55 0
1.4 0.55 0
1.4 0.5 0
1.45 0.5 0
1.4 0.55 0
1.45 0.55 0
1.45 0.5 0
1.5 0.5 0
1.45 0.55 0
1.5 0.55 0
1.5 0.5 0
1.55 0.5 0
1.5 0.55 0
1.55 0.55 0
1.55 0.5 0
1.6 0.5 0
1.55 0.55 0
1.6 0.55 0
1.6 0.5 0
1.65 0.5 0
1.6 0.55 0
1.65 0.55 0
1.9 0.5 0
1.95 0.5 0
1.9 0.55 0
1.95 0.55 0
0 0.55 0
0.05 0.55 0
0 0.6 0
0.05 0.6 0
0.05 0.55 0
0.1 0.55 0
0.05 0.6 0
0.1 0.6 0
0.1 0.55 0
0.15 0.55 0
0.1 0.6 0
0.15 0.6 0
0.15 0.55 0
0.2 0.55 0
0.15 0.6 0
0.2 0.6 0
0.2 0.55 0
0.25 0.55 0
0.2 0.6 0
0.25 0.6 0
0.25 0.55 0
0.3 0.55 0
0.25 0.6 0
0.3 0.6 0
0.3 0.55 0
0.35 0.55 0
0.3 0.6 0
0.35 0.6 0
0.35 0.55 0
0.4 0.55 0
0.35 0.6 0
0.4 0.6 0
0.4 0.55 0
0.45 0.55 0
0.4 0.6 0
0.45 0.6 0
0.75 0.55 0
0.8 0.55 0
0.75 0.6 0
0.8 0.6 0
0.8 0.55 0
0.85 0.55 0
0.8 0.6 0
0.85 0.6 0
0.85 0.55 0
0.9 0.55 0
0.85 0.6 0
0.9 0.6 0
1.15 0.55 0
1.2 0.55 0
1.15 0.6 0
1.2 0.6 0
1.2 0.55 0
1.25 0.55 0
1.2 0.6 0
1.25 0.6 0
1.25 0.55 0
1.3 0.55 0
1.25 0.6 0
1.3 0.6 0
1.3 0.55 0
1.35 0.55 0
1.3 0.6 0
1.35 0.6 0
1.35 0.55 0
1.4 0.55 0
1.35 0.6 0
1.4 0.6 0
1.4 0.55 0
1.45 0.55 0
1.4 0.6 0
1.45 0.6 0
1.45 0.55 0
1.5 0.55 0
1.45 0.6 0
1.5 0.6 0
1.5 0.55 0
1.55 0.55 0
1.5 0.6 0
1.55 0.6 0
1.55 0.55 0
1.6 0.55 0
1.55 0.6 0
1.6 0.6 0
0 0.6 0
0.05 0.6 0
0 0.65 0
0.05 0.65 0
0.05 0.6 0
0.1 0.6 0
0.05 0.65 0
0.1 0.65 0
0.1 0.6 0
0.15 0.6 0
0.1 0.65 0
0.15 0.65 0
0.15 0.6 0
0.2 0.6 0
0.15 0.65 0
0.2 0.65 0
0.2 0.6 0
0.25 0.6 0
0.2 0.65 0
0.25 0.65 0
0.25 0.6 0
0.3 0.6 0
0.25 0.65 0
0.3 0.65 0
0.3 0.6 0
0.35 0.6 0
0.3 0.65 0
0.35 0.65 0
0.7 0.6 0
0.75 0.6 0
0.7 0.65 0
0.75 0.65 0
1.2 0.6 0
1.25 0.6 0
1.2 0.65 0
1.25 0.65 0
1.25 0.6 0
1.3 0.6 0
1.25 0.65 0
1.3 0.65 0
1.3 0.6 0
1.35 0.6 0
1.3 0.65 0
1.35 0.65 0
1.35 0.6 0
1.4 0.6 0
1.35 0.65 0
1.4 0.65 0
1.4 0.6 0
1.45 0.6 0
1.4 0.65 0
1.45 0.65 0
1.45 0.6 0
1.5 0.6 0
1.45 0.65 0
1.5 0.65 0
0 0.65 0
0.05 0.65 0
0 0.7 0
0.05 0.7 0
0.05 0.65 0
0.1 0.65 0
0.05 0.7 0
0.1 0.7 0
0.1 0.65 0
0.15 0.65 0
0.1 0.7 0
0.15 0.7 0
0.15 0.65 0
0.2 0.65 0
0.15 0.7 0
0.2 0.7 0
0.2 0.65 0
0.25 0.65 0
0.2 0.7 0
0.25 0.7 0
0.6 0.65 0
0.65 0.65 0
0.6 0.7 0
0.65 0.7 0
1.2 0.65 0
1.25 0.65 0
1.2 0.7 0
1.25 0.7 0
1.25 0.65 0
1.3 0.65 0
1.25 0.7 0
1.3 0.7 0
1.3 0.65 0
1.35 0.65 0
1.3 0.7 0
1.35 0.7 0
[...]
POINT_DATA 41912
SCALARS x_displacement double 1
LOOKUP_TABLE default
0 1.32337 0 0.774754 1.32337 2.33144 0.774754 1.59461 2.33144 3.17741 1.59461 2.32197 3.17741 3.90785 2.32197 2.97044 3.90785 4.55155 2.97044 3.55395 4.55155 5.13822 3.55395 4.0866 5.13822 5.69555 4.0866 4.58747 5.69555 6.23969 4.58747 5.07625 6.23969 6.77756 5.07625 5.55865 6.77756 7.31169 5.55865 6.04109 7.31169 7.84525 6.04109 6.52408 7.84525 8.37919 6.52408 7.00698 8.37919 8.91008 7.00698 7.49263 8.91008 9.42887 7.49263 7.98086 9.42887 9.93274 7.98086 8.46965 9.93274 10.4287 8.46965 8.96267 10.4287 10.9239 8.96267 9.45684 10.9239 11.419 9.45684 9.95099 11.419 11.9137 9.95099 10.4451 11.9137 12.4118 10.4451 10.936 12.4118 12.9264 10.936 11.4202 12.9264 13.4787 11.4202 11.8916 13.4787 14.0745 11.8916 12.3517 14.0745 14.6577 12.3517 12.7984 14.6577 15.1138 12.7984 13.1913 16.8341 17.1073 14.1935 15.3813 17.1073 17.5952 15.3813 15.3047 17.5952 17.7895 15.3047 15.5252 17.7895 17.9528 15.5252 15.7441 17.9528 18.084 15.7441 15.9146 18.084 18.169 15.9146 16.0395 18.169 18.2088 16.0395 16.1227 18.2088 18.2131 16.1227 16.174 18.2131 18.1985 16.174 16.1983 18.1985 18.183 16.1983 16.2054 18.183 18.1778 16.2054 16.2078 0 0.774754 0 0.531872 0.774754 1.59461 0.531872 1.08943 1.59461 2.32197 1.08943 1.65072 2.32197 2.97044 1.65072 2.17928 2.97044 3.55395 2.17928 2.67111 3.55395 4.0866 2.67111 3.12019 4.0866 4.58747 3.12019 3.52127 12.3517 12.7984 10.7242 11.0777 12.7984 13.1913 11.0777 11.3957 15.3047 15.5252 13.0172 13.3682 15.5252 15.7441 13.3682 13.6375 15.7441 15.9146 13.6375 13.8472 15.9146 16.0395 13.8472 13.9923 16.0395 16.1227 13.9923 14.1129 16.1227 16.174 14.1129 14.1948 16.174 16.1983 14.1948 14.2381 16.1983 16.2054 14.2381 14.2523 16.2054 16.2078 14.2523 14.2572 1.65072 2.17928 1.05922 1.47589 2.17928 2.67111 1.47589 1.88147 2.67111 3.12019 1.88147 2.2556 3.12019 3.52127 2.2556 2.58145 13.6375 13.8472 11.6677 11.822 13.8472 13.9923 11.822 12.0225 13.9923 14.1129 12.0225 12.1829 14.1129 14.1948 12.1829 12.2929 14.1948 14.2381 12.2929 12.3458 14.2381 14.2523 12.3458 12.362 14.2523 14.2572 12.362 12.3636 2.2556 2.58145 1.47866 1.79941 12.0225 12.1829 10.1471 10.3491 12.1829 12.2929 10.3491 10.4659 12.2929 12.3458 10.4659 10.5422 12.3458 12.362 10.5422 10.5644 12.362 12.3636 10.5644 10.5557 2.11128 2.41589 1.37611 1.68497 5.20084 5.88919 5.21757 4.88911 5.88919 6.28563 4.88911 5.33125 6.28563 6.69751 5.33125 5.64532 6.69751 7.01291 5.64532 5.98603 10.3491 10.4659 8.51406 8.72719 10.4659 10.5422 8.72719 8.84772 10.5422 10.5644 8.84772 8.88076 10.5644 10.5557 8.88076 8.85491 0 -0.300242 0 -0.197604 -0.300242 -1.33004 -0.197604 -0.174277 -1.33004 -0.251482 -0.174277 -0.356654 5.64532 5.98603 4.57266 4.91776 6.02872 5.84059 4.91032 4.90151 5.84059 6.07914 4.90151 4.97893 8.84772 8.88076 7.26335 7.32149 8.88076 8.85491 7.32149 7.24709 0 -0.197604 0 -0.0240311 -0.197604 -0.174277 -0.0240311 -0.0821699 -0.174277 -0.356654 -0.0821699 -0.10497 -0.356654 -0.191734 -0.10497 -0.137542 -0.191734 -0.102175 -0.137542 -0.10146 1.87716 2.18419 1.15372 1.44909 4.94693 4.91032 3.5248 3.5982 4.91032 4.90151 3.5982 3.65598 4.90151 4.97893 3.65598 3.66924 4.97893 5.02373 3.66924 3.64034 0 -0.0240311 0 -0.00831783 -0.0240311 -0.0821699 -0.00831783 -0.0192025 -0.0821699 -0.10497 -0.0192025 -0.0500354 -0.10497 -0.137542 -0.0500354 -0.0768109 -0.137542 -0.10146 -0.0768109 -0.109217 -0.10146 -0.0822997 -0.109217 -0.149345 -0.0822997 -0.0689639 -0.149345 -0.233616 1.73527 2.02804 0.992856 1.23908 3.5248 3.5982 2.30074 2.32492 3.5982 3.65598 2.32492 2.38414 3.65598 3.66924 2.38414 2.40007 3.66924 3.64034 2.40007 2.37935 3.64034 3.56285 2.37935 2.32304 3.56285 3.08773 2.32304 2.44713 0 -0.00831783 0 -0.000641305 -0.00831783 -0.0192025 -0.000641305 -0.00651155 -0.0192025 -0.0500354 -0.00651155 -0.0195759 -0.0500354 -0.0768109 -0.0195759 -0.0409519 -0.0768109 -0.109217 -0.0409519 -0.0680667 -0.109217 -0.149345 -0.0680667 -0.111697 -0.149345 -0.233616 -0.111697 -0.199511 -0.233616 -0.455983 -0.199511 -0.360188 -0.455983 -1.65575 -0.360188 -0.218393 1.23908 1.48943 0.517572 0.699415 1.48943 1.72661 0.699415 0.840558 1.72661 1.93475 0.840558 0.941475 2.23863 2.30074 0.996851 1.11947 2.30074 2.32492 1.11947 1.15227 2.32492 2.38414 1.15227 1.17215 2.38414 2.40007 1.17215 1.18395 2.40007 2.37935 1.18395 1.18036 2.37935 2.32304 1.18036 1.19949 2.32304 2.44713 1.19949 1.19286 2.44713 2.39431 1.19286 1.16045 2.39431 2.39389 1.16045 1.02499 0 -0.000641305 0 2.63185e-11 -0.000641305 -0.00651155 2.63185e-11 7.33521e-11 -0.00651155 -0.0195759 7.33521e-11 1.08426e-10 -0.0195759 -0.0409519 1.08426e-10 1.2162e-10 -0.0409519 -0.0680667 1.2162e-10 1.14075e-10 -0.0680667 -0.111697 1.14075e-10 9.3983e-11 -0.111697 -0.199511 9.3983e-11 7.13064e-11 -0.199511 -0.360188 7.13064e-11 5.08039e-11 -0.360188 -0.218393 5.08039e-11 3.48514e-11 -0.218393 -0.3516 3.48514e-11 2.83717e-11 -0.3516 -0.285454 2.83717e-11 3.39196e-11 0.699415 0.840558 7.7659e-13 6.23324e-13 0.840558 0.941475 6.23324e-13 6.40666e-13 0.941475 0.98724 6.40666e-13 5.97998e-13 0.98724 0.968326 5.97998e-13 4.25878e-13 0.996851 1.11947 3.08579e-11 2.14241e-10 1.11947 1.15227 2.14241e-10 -4.40446e-11 1.15227 1.17215 -4.40446e-11 -7.80403e-11 1.17215 1.18395 -7.80403e-11 -8.70937e-11 1.18395 1.18036 -8.70937e-11 -3.54089e-10 1.18036 1.19949 -3.54089e-10 -2.8082e-10 1.19949 1.19286 -2.8082e-10 2.75369e-10 1.19286 1.16045 2.75369e-10 -8.38658e-12 1.16045 1.02499 -8.38658e-12 -7.9921e-10 1.02499 1.09677 -7.9921e-10 -5.99867e-10 1.88173 2.09295 3.96571e-12 3.66144e-12 0 2.63185e-11 0 0.000641305 2.63185e-11 7.33521e-11 0.000641305 0.00651155 7.33521e-11 1.08426e-10 0.00651155 0.0195759 1.08426e-10 1.2162e-10 0.0195759 0.0409519 1.2162e-10 1.14075e-10 0.0409519 0.0680667 1.14075e-10 9.3983e-11 0.0680667 0.111697 9.3983e-11 7.13064e-11 0.111697 0.199511 7.13064e-11 5.08039e-11 0.199511 0.360188 5.08039e-11 3.48514e-11 0.360188 0.218393 3.48514e-11 2.83717e-11 0.218393 0.3516 2.83717e-11 3.39196e-11 0.3516 0.285454 7.7659e-13 6.23324e-13 -0.699415 -0.840558 6.23324e-13 6.40666e-13 -0.840558 -0.941475 6.40666e-13 5.97998e-13 -0.941475 -0.98724 5.97998e-13 4.25878e-13 -0.98724 -0.968326 3.08579e-11 2.14241e-10 -0.996851 -1.11947 2.14241e-10 -4.40446e-11 -1.11947 -1.15227 -4.40446e-11 -7.80403e-11 -1.15227 -1.17215 -7.80403e-11 -8.70937e-11 -1.17215 -1.18395 -8.70937e-11 -3.54089e-10 -1.18395 -1.18036 -3.54089e-10 -2.8082e-10 -1.18036 -1.19949 -2.8082e-10 2.75369e-10 -1.19949 -1.19286 2.75369e-10 -8.38658e-12 -1.19286 -1.16045 -8.38658e-12 -7.9921e-10 -1.16045 -1.02499 -7.9921e-10 -5.99867e-10 -1.02499 -1.09677 3.96571e-12 3.66144e-12 -1.88173 -2.09295 0 0.000641305 0 0.00831783 0.000641305 0.00651155 0.00831783 0.0192025 0.00651155 0.0195759 0.0192025 0.0500354 0.0195759 0.0409519 0.0500354 0.0768109 0.0409519 0.0680667 0.0768109 0.109217 0.0680667 0.111697 0.109217 0.149345 0.111697 0.199511 0.149345 0.233616 0.199511 0.360188 0.233616 0.455983 0.360188 0.218393 0.455983 1.65575 -0.517572 -0.699415 -1.23908 -1.48943 -0.699415 -0.840558 -1.48943 -1.72661 -0.840558 -0.941475 -1.72661 -1.93475 -0.996851 -1.11947 -2.23863 -2.30074 -1.11947 -1.15227 -2.30074 -2.32492 -1.15227 -1.17215 -2.32492 -2.38414 -1.17215 -1.18395 -2.38414 -2.40007 -1.18395 -1.18036 -2.40007 -2.37935 -1.18036 -1.19949 -2.37935 -2.32304 -1.19949 -1.19286 -2.32304 -2.44713 -1.19286 -1.16045 -2.44713 -2.39431 -1.16045 -1.02499 -2.39431 -2.39389 0 0.00831783 0 0.0240311 0.00831783 0.0192025 0.0240311 0.0821699 0.0192025 0.0500354 0.0821699 0.10497 0.0500354 0.0768109 0.10497 0.137542 0.0768109 0.109217 0.137542 0.10146 0.109217 0.149345 0.10146 0.0822997 0.149345 0.233616 0.0822997 0.0689639 -0.992856 -1.23908 -1.73527 -2.02804 -2.30074 -2.32492 -3.5248 -3.5982 -2.32492 -2.38414 -3.5982 -3.65598 -2.38414 -2.40007 -3.65598 -3.66924 -2.40007 -2.37935 -3.66924 -3.64034 -2.37935 -2.32304 -3.64034 -3.56285 -2.32304 -2.44713 -3.56285 -3.08773 0 0.0240311 0 0.197604 0.0240311 0.0821699 0.197604 0.174277 0.0821699 0.10497 0.174277 0.356654 0.10497 0.137542 0.356654 0.191734 0.137542 0.10146 0.191734 0.102175 -1.15372 -1.44909 -1.87716 -2.18419 -3.5248 -3.5982 -4.94693 -4.91032 -3.5982 -3.65598 -4.91032 -4.90151 -3.65598 -3.66924 -4.90151 -4.97893 -3.66924 -3.64034 -4.97893 -5.02373 0 0.197604 0 0.300242 0.197604 0.174277 0.300242 1.33004 0.174277 0.356654 1.33004 0.251482 -4.57266 -4.91776 -5.64532 -5.98603 -4.91032 -4.90151 -6.02872 -5.84059 -4.90151 -4.97893 -5.84059 -6.07914 -7.26335 -7.32149 -8.84772 -8.88076 -7.32149 -7.24709 -8.88076 -8.85491 -1.37611 -1.68497 -2.11128 -2.41589 -5.21757 -4.88911 -5.20084 -5.88919 -4.88911 -5.33125 -5.88919 -6.28563 -5.33125 -5.64532 -6.28563 -6.69751 -5.64532 -5.98603 -6.69751 -7.01291 -8.51406 -8.72719 -10.3491 -10.4659 -8.72719 -8.84772 -10.4659 -10.5422 -8.84772 -8.88076 -10.5422 -10.5644 -8.88076 -8.85491 -10.5644 -10.5557 -1.47866 -1.79941 -2.2556 -2.58145 -10.1471 -10.3491 -12.0225 -12.1829 -10.3491 -10.4659 -12.1829 -12.2929 -10.4659 -10.5422 -12.2929 -12.3458 -10.5422 -10.5644 -12.3458 -12.362 -10.5644 -10.5557 -12.362 -12.3636 -1.05922 -1.47589 -1.65072 -2.17928 -1.47589 -1.88147 -2.17928 -2.67111 -1.88147 -2.2556 -2.67111 -3.12019 -2.2556 -2.58145 -3.12019 -3.52127 -11.6677 -11.822 -13.6375 -13.8472 -11.822 -12.0225 -13.8472 -13.9923 -12.0225 -12.1829 -13.9923 -14.1129 -12.1829 -12.2929 -14.1129 -14.1948 -12.2929 -12.3458 -14.1948 -14.2381 -12.3458 -12.362 -14.2381 -14.2523 -12.362 -12.3636 -14.2523 -14.2572 0 -0.531872 0 -0.774754 -0.531872 -1.08943 -0.774754 -1.59461 -1.08943 -1.65072 -1.59461 -2.32197 -1.65072 -2.17928 -2.32197 -2.97044 -2.17928 -2.67111 -2.97044 -3.55395 -2.67111 -3.12019 -3.55395 -4.0866 -3.12019 -3.52127 -4.0866 -4.58747 -10.7242 -11.0777 -12.3517 -12.7984 -11.0777 -11.3957 -12.7984 -13.1913 -13.0172 -13.3682 -15.3047 -15.5252 -13.3682 -13.6375 -15.5252 -15.7441 -13.6375 -13.8472 -15.7441 -15.9146 -13.8472 -13.9923 -15.9146 -16.0395 -13.9923 -14.1129 -16.0395 -16.1227 -14.1129 -14.1948 -16.1227 -16.174 -14.1948 -14.2381 -16.174 -16.1983 -14.2381 -14.2523 -16.1983 -16.2054 -14.2523 -14.2572 -16.2054 -16.2078 0 -0.774754 0 -1.32337 -0.774754 -1.59461 -1.32337 -2.33144 -1.59461 -2.32197 -2.33144 -3.17741 -2.32197 -2.97044 -3.17741 -3.90785 -2.97044 -3.55395 -3.90785 -4.55155 -3.55395 -4.0866 -4.55155 -5.13822 -4.0866 -4.58747 -5.13822 -5.69555 -4.58747 -5.07625 -5.69555 -6.23969 -5.07625 -5.55865 -6.23969 -6.77756 -5.55865 -6.04109 -6.77756 -7.31169 -6.04109 -6.52408 -7.31169 -7.84525 -6.52408 -7.00698 -7.84525 -8.37919 -7.00698 -7.49263 -8.37919 -8.91008 -7.49263 -7.98086 -8.91008 -9.42887 -7.98086 -8.46965 -9.42887 -9.93274 -8.46965 -8.96267 -9.93274 -10.4287 -8.96267 -9.45684 -10.4287 -10.9239 -9.45684 -9.95099 -10.9239 -11.419 -9.95099 -10.4451 -11.419 -11.9137 -10.4451 -10.936 -11.9137 -12.4118 -10.936 -11.4202 -12.4118 -12.9264 -11.4202 -11.8916 -12.9264 -13.4787 -11.8916 -12.3517 -13.4787 -14.0745 -12.3517 -12.7984 -14.0745 -14.6577 -12.7984 -13.1913 -14.6577 -15.1138 -14.1935 -15.3813 -16.8341 -17.1073 -15.3813 -15.3047 -17.1073 -17.5952 -15.3047 -15.5252 -17.5952 -17.7895 -15.5252 -15.7441 -17.7895 -17.9528 -15.7441 -15.9146 -17.9528 -18.084 -15.9146 -16.0395 -18.084 -18.169 -16.0395 -16.1227 -18.169 -18.2088 -16.1227 -16.174 -18.2088 -18.2131 -16.174 -16.1983 -18.2131 -18.1985 -16.1983 -16.2054 -18.1985 -18.183 -16.2054 -16.2078 -18.183 -18.1778 15.9471 16.2623 14.9687 14.9094 5.55865 5.79987 4.94928 5.17731 5.79987 6.04109 5.17731 5.40608 4.94928 5.17731 4.33879 4.55502 5.17731 5.40608 4.55502 4.77125 6.04109 6.28259 5.40608 5.63496 6.28259 6.52408 5.63496 5.8638 5.40608 5.63496 4.77125 4.98746 5.63496 5.8638 4.98746 5.2037 6.52408 6.76553 5.8638 6.09259 6.76553 7.00698 6.09259 6.32148 5.8638 6.09259 5.2037 5.41997 6.09259 6.32148 5.41997 5.6362 7.00698 7.24981 6.32148 6.55096 7.24981 7.49263 6.55096 6.78317 6.32148 6.55096 5.6362 5.85222 6.55096 6.78317 5.85222 6.06813 7.49263 7.73674 6.78317 7.01837 7.73674 7.98086 7.01837 7.25577 7.98086 8.22525 7.25577 7.49458 8.22525 8.46965 7.49458 7.73792 8.46965 8.71616 7.73792 7.9836 8.71616 8.96267 7.9836 8.23013 8.96267 9.20976 8.23013 8.47674 9.20976 9.45684 8.47674 8.72341 9.45684 9.70392 8.72341 8.97008 9.70392 9.95099 8.97008 9.21678 9.95099 10.198 9.21678 9.4635 10.198 10.4451 9.4635 9.71007 10.4451 10.6905 9.71007 9.95591 10.6905 10.936 9.95591 10.1983 10.936 11.1781 10.1983 10.4364 11.1781 11.4202 10.4364 10.6693 11.4202 11.6559 10.6693 10.8949 11.6559 11.8916 10.8949 11.1065 10.8949 11.1065 10.1525 10.3553 14.1935 14.7874 13.3917 13.2048 14.7874 15.3813 13.2048 13.6355 0 0.265936 0 0.205198 0.265936 0.531872 0.205198 0.420125 0.531872 0.810652 0.420125 0.641995 0.810652 1.08943 0.641995 0.875117 0.641995 0.875117 0.461948 0.656344 11.3957 11.5288 10.4704 10.579 11.5288 11.6505 10.579 10.6919 13.0172 13.1927 11.9649 12.0247 13.1927 13.3682 12.0247 12.4893 12.0247 12.4893 11.2058 11.0779 0 -0.0873528 0 -0.16552 1.05922 1.26756 0.766919 0.951711 1.26756 1.47589 0.951711 1.13805 3.89852 4.0757 3.32332 3.41624 4.0757 4.26577 3.41624 3.60442 8.48594 8.7123 7.964 7.77635 7.964 7.77635 7.40425 7.82503 9.98026 10.1133 9.02182 9.16518 10.1133 10.2451 9.16518 9.30306 9.8406 9.97252 8.91494 9.04802 11.3773 11.6677 10.651 10.3401 -0.131572 0.19053 -1.33004 -0.790761 0.19053 0.0378232 -0.790761 -0.251482 1.31587 1.47866 0.949919 1.11076 2.35125 2.50105 1.98942 2.14094 3.66947 3.82609 3.2117 3.34644 3.82609 4.23297 3.34644 3.58938 7.06898 6.99231 5.98188 6.02872 6.70121 7.10699 5.84059 5.95987 7.10699 7.0592 5.95987 6.07914 10.0707 10.1471 9.12008 9.40141 -0.253381 0.0190776 -0.191734 -0.146955 0.0190776 0.13774 -0.146955 -0.102175 1.22093 1.37611 0.859819 1.01351 2.23937 2.39299 1.87716 2.03067 2.39299 2.55319 2.03067 2.18419 3.69617 5.21757 3.54874 3.0942 5.21757 5.05334 3.0942 3.82194 5.05334 4.88911 3.82194 4.00336 5.98603 6.16863 5.45189 5.63222 5.45189 5.63222 4.91776 4.97941 5.65721 5.65278 4.96741 4.96852 5.77379 5.85978 5.02373 5.08908 7.21039 7.34602 6.29318 6.43117 8.51406 8.62063 7.64631 7.80506 8.62063 8.72719 7.80506 7.90504 -0.0045295 0.0395016 -0.0822997 -0.0756318 0.0395016 0.0619221 -0.0756318 -0.0689639 1.11133 1.26529 0.748572 0.902934 2.11814 2.27211 1.73527 1.88166 2.27211 2.43031 1.88166 2.02804 2.43031 2.59281 2.02804 2.17993 4.28638 4.57266 3.51535 3.95237 4.98759 4.94693 4.09999 4.23586 4.09999 4.23586 3.61689 3.5248 4.59807 4.41267 3.08773 3.7665 5.9289 6.06392 5.02251 5.15918 5.70123 5.83768 4.79845 4.93173 7.26335 7.29242 6.50845 6.55464 7.29242 7.32149 6.55464 6.59153 -0.280744 -0.231794 -0.455983 -1.05586 -0.231794 0.301158 -1.05586 -1.65575 0.301158 -0.127147 -1.65575 -0.193107 1.00222 1.15372 0.643651 0.798209 2.18243 2.31563 1.72661 1.83068 2.31563 2.44387 1.83068 1.93475 3.61647 3.61258 2.94234 2.93659 2.94234 2.93659 2.25593 2.26268 3.03889 3.09664 2.39431 2.3941 3.09664 3.15993 2.3941 2.39389 4.4223 4.56151 3.49753 3.6298 5.84338 5.81461 5.05934 5.04018 -0.107759 -0.0483389 -0.285454 -0.335821 0.867232 0.992856 0.52611 0.647812 2.28748 2.23863 1.4533 1.61774 1.4533 1.61774 0.962261 0.996851 1.51285 1.77825 1.09677 1.10461 3.12315 3.246 2.23267 2.35029 -0.0795576 -0.0788391 -6.94841e-11 5.48205e-11 0.968326 0.966284 0.484163 0.441878 0.484163 0.441878 4.25878e-13 2.91425e-13 0.553551 0.53142 1.26268e-11 -8.49099e-11 -6.94841e-11 5.48205e-11 0.0795576 0.0788391 4.25878e-13 2.91425e-13 -0.484163 -0.441878 -0.484163 -0.441878 -0.968326 -0.966284 1.26268e-11 -8.49099e-11 -0.553551 -0.53142 0.285454 0.335821 0.107759 0.0483389 -0.52611 -0.647812 -0.867232 -0.992856 -0.962261 -0.996851 -1.4533 -1.61774 -1.4533 -1.61774 -2.28748 -2.23863 -1.09677 -1.10461 -1.51285 -1.77825 -2.23267 -2.35029 -3.12315 -3.246 0.455983 1.05586 0.280744 0.231794 1.05586 1.65575 0.231794 -0.301158 1.65575 0.193107 -0.301158 0.127147 -0.643651 -0.798209 -1.00222 -1.15372 -1.72661 -1.83068 -2.18243 -2.31563 -1.83068 -1.93475 -2.31563 -2.44387 -2.25593 -2.26268 -2.94234 -2.93659 -2.94234 -2.93659 -3.61647 -3.61258 -2.39431 -2.3941 -3.03889 -3.09664 -2.3941 -2.39389 -3.09664 -3.15993 -3.49753 -3.6298 -4.4223 -4.56151 -5.05934 -5.04018 -5.84338 -5.81461 0.0822997 0.0756318 0.0045295 -0.0395016 0.0756318 0.0689639 -0.0395016 -0.0619221 -0.748572 -0.902934 -1.11133 -1.26529 -1.73527 -1.88166 -2.11814 -2.27211 -1.88166 -2.02804 -2.27211 -2.43031 -2.02804 -2.17993 -2.43031 -2.59281 -3.51535 -3.95237 -4.28638 -4.57266 -3.61689 -3.5248 -4.09999 -4.23586 -4.09999 -4.23586 -4.98759 -4.94693 -3.08773 -3.7665 -4.59807 -4.41267 -5.02251 -5.15918 -5.9289 -6.06392 -4.79845 -4.93173 -5.70123 -5.83768 -6.50845 -6.55464 -7.26335 -7.29242 -6.55464 -6.59153 -7.29242 -7.32149 0.191734 0.146955 0.253381 -0.0190776 0.146955 0.102175 -0.0190776 -0.13774 -0.859819 -1.01351 -1.22093 -1.37611 -1.87716 -2.03067 -2.23937 -2.39299 -2.03067 -2.18419 -2.39299 -2.55319 -3.54874 -3.0942 -3.69617 -5.21757 -3.0942 -3.82194 -5.21757 -5.05334 -3.82194 -4.00336 -5.05334 -4.88911 -4.91776 -4.97941 -5.45189 -5.63222 -5.45189 -5.63222 -5.98603 -6.16863 -4.96741 -4.96852 -5.65721 -5.65278 -5.02373 -5.08908 -5.77379 -5.85978 -6.29318 -6.43117 -7.21039 -7.34602 -7.64631 -7.80506 -8.51406 -8.62063 -7.80506 -7.90504 -8.62063 -8.72719 1.33004 0.790761 0.131572 -0.19053 0.790761 0.251482 -0.19053 -0.0378232 -0.949919 -1.11076 -1.31587 -1.47866 -1.98942 -2.14094 -2.35125 -2.50105 -3.2117 -3.34644 -3.66947 -3.82609 -3.34644 -3.58938 -3.82609 -4.23297 -5.98188 -6.02872 -7.06898 -6.99231 -5.84059 -5.95987 -6.70121 -7.10699 -5.95987 -6.07914 -7.10699 -7.0592 -9.12008 -9.40141 -10.0707 -10.1471 0 0.16552 0 0.0873528 -0.766919 -0.951711 -1.05922 -1.26756 -0.951711 -1.13805 -1.26756 -1.47589 -3.32332 -3.41624 -3.89852 -4.0757 -3.41624 -3.60442 -4.0757 -4.26577 -7.40425 -7.82503 -7.964 -7.77635 -7.964 -7.77635 -8.48594 -8.7123 -9.02182 -9.16518 -9.98026 -10.1133 -9.16518 -9.30306 -10.1133 -10.2451 -8.91494 -9.04802 -9.8406 -9.97252 -10.651 -10.3401 -11.3773 -11.6677 0 -0.205198 0 -0.265936 -0.205198 -0.420125 -0.265936 -0.531872 -0.461948 -0.656344 -0.641995 -0.875117 -0.420125 -0.641995 -0.531872 -0.810652 -0.641995 -0.875117 -0.810652 -1.08943 -10.4704 -10.579 -11.3957 -11.5288 -10.579 -10.6919 -11.5288 -11.6505 -11.2058 -11.0779 -12.0247 -12.4893 -11.9649 -12.0247 -13.0172 -13.1927 -12.0247 -12.4893 -13.1927 -13.3682 -4.33879 -4.55502 -4.94928 -5.17731 -4.55502 -4.77125 -5.17731 -5.40608 -4.94928 -5.17731 -5.55865 -5.79987 -5.17731 -5.40608 -5.79987 -6.04109 -4.77125 -4.98746 -5.40608 -5.63496 -4.98746 -5.2037 -5.63496 -5.8638 -5.40608 -5.63496 -6.04109 -6.28259 -5.63496 -5.8638 -6.28259 -6.52408 -5.2037 -5.41997 -5.8638 -6.09259 -5.41997 -5.6362 -6.09259 -6.32148 -5.8638 -6.09259 -6.52408 -6.76553 -6.09259 -6.32148 -6.76553 -7.00698 -5.6362 -5.85222 -6.32148 -6.55096 -5.85222 -6.06813 -6.55096 -6.78317 -6.32148 -6.55096 -7.00698 -7.24981 -6.55096 -6.78317 -7.24981 -7.49263 -6.78317 -7.01837 -7.49263 -7.73674 -7.01837 -7.25577 -7.73674 -7.98086 -7.25577 -7.49458 -7.98086 -8.22525 -7.49458 -7.73792 -8.22525 -8.46965 -7.73792 -7.9836 -8.46965 -8.71616 -7.9836 -8.23013 -8.71616 -8.96267 -8.23013 -8.47674 -8.96267 -9.20976 -8.47674 -8.72341 -9.20976 -9.45684 -8.72341 -8.97008 -9.45684 -9.70392 -8.97008 -9.21678 -9.70392 -9.95099 -9.21678 -9.4635 -9.95099 -10.198 -9.4635 -9.71007 -10.198 -10.4451 -9.71007 -9.95591 -10.4451 -10.6905 -9.95591 -10.1983 -10.6905 -10.936 -10.1983 -10.4364 -10.936 -11.1781 -10.4364 -10.6693 -11.1781 -11.4202 -10.1525 -10.3553 -10.8949 -11.1065 -10.6693 -10.8949 -11.4202 -11.6559 -10.8949 -11.1065 -11.6559 -11.8916 -13.3917 -13.2048 -14.1935 -14.7874 -13.2048 -13.6355 -14.7874 -15.3813 -14.9687 -14.9094 -15.9471 -16.2623 15.1138 15.2677 14.1525 14.2996 14.1525 14.2996 13.1913 13.3688 16.2623 16.5142 14.9094 15.2393 16.5142 16.8341 15.2393 15.5138 15.2393 15.5138 14.0727 14.1935 5.07625 5.31745 4.49845 4.72329 5.31745 5.55865 4.72329 4.94928 4.49845 4.72329 3.9171 4.12439 4.72329 4.94928 4.12439 4.33879 11.8916 12.1216 11.1065 11.3173 12.1216 12.3517 11.3173 11.5379 11.1065 11.3173 10.3553 10.5454 11.3173 11