# vtk DataFile Version 3.0
#This file was generated by the deal.II library on 2016/3/9 at 8:35:54
ASCII
DATASET UNSTRUCTURED_GRID

POINTS 32 double
0 0 0
0.5 0 0
0 0.5 0
0.5 0.5 0
0.5 0 0
1 0 0
0.5 0.5 0
1 0.5 0
1 0 0
1.5 0 0
1 0.5 0
1.5 0.5 0
1.5 0 0
2 0 0
1.5 0.5 0
2 0.5 0
0 0.5 0
0.5 0.5 0
0 1 0
0.5 1 0
0.5 0.5 0
1 0.5 0
0.5 1 0
1 1 0
1 0.5 0
1.5 0.5 0
1 1 0
1.5 1 0
1.5 0.5 0
2 0.5 0
1.5 1 0
2 1 0

CELLS 8 40
4	0	1	3	2
4	4	5	7	6
4	8	9	11	10
4	12	13	15	14
4	16	17	19	18
4	20	21	23	22
4	24	25	27	26
4	28	29	31	30

CELL_TYPES 8
 9 9 9 9 9 9 9 9
POINT_DATA 32
SCALARS x_displacement double 1
LOOKUP_TABLE default
0 28.6053 0 2.32049e-12 28.6053 57.524 2.32049e-12 3.13155e-13 57.524 87.4206 3.13155e-13 1.82981e-12 87.4206 99.5359 1.82981e-12 -2.75409e-12 0 2.32049e-12 0 -28.6053 2.32049e-12 3.13155e-13 -28.6053 -57.524 3.13155e-13 1.82981e-12 -57.524 -87.4206 1.82981e-12 -2.75409e-12 -87.4206 -99.5359 
SCALARS y_displacement double 1
LOOKUP_TABLE default
0 24.7643 0 19.466 24.7643 77.3739 19.466 73.4429 77.3739 169.39 73.4429 163.302 169.39 281.635 163.302 296.311 0 19.466 0 24.7643 19.466 73.4429 24.7643 77.3739 73.4429 163.302 77.3739 169.39 163.302 296.311 169.39 281.635 
