# vtk DataFile Version 3.0
#This file was generated by the deal.II library on 2016/2/8 at 16:08:02
ASCII
DATASET UNSTRUCTURED_GRID

POINTS 6584 double
0 0 0
0.05 0 0
0 0.05 0
0.05 0.05 0
0.05 0 0
0.1 0 0
0.05 0.05 0
0.1 0.05 0
0.1 0 0
0.15 0 0
0.1 0.05 0
0.15 0.05 0
0.15 0 0
0.2 0 0
0.15 0.05 0
0.2 0.05 0
0.2 0 0
0.25 0 0
0.2 0.05 0
0.25 0.05 0
0.25 0 0
0.3 0 0
0.25 0.05 0
0.3 0.05 0
0.3 0 0
0.35 0 0
0.3 0.05 0
0.35 0.05 0
0.35 0 0
0.4 0 0
0.35 0.05 0
0.4 0.05 0
0.4 0 0
0.45 0 0
0.4 0.05 0
0.45 0.05 0
0.45 0 0
0.5 0 0
0.45 0.05 0
0.5 0.05 0
0.5 0 0
0.55 0 0
0.5 0.05 0
0.55 0.05 0
0.55 0 0
0.6 0 0
0.55 0.05 0
0.6 0.05 0
0.6 0 0
0.65 0 0
0.6 0.05 0
0.65 0.05 0
0.65 0 0
0.7 0 0
0.65 0.05 0
0.7 0.05 0
0.7 0 0
0.75 0 0
0.7 0.05 0
0.75 0.05 0
0.75 0 0
0.8 0 0
0.75 0.05 0
0.8 0.05 0
0.8 0 0
0.85 0 0
0.8 0.05 0
0.85 0.05 0
0.85 0 0
0.9 0 0
0.85 0.05 0
0.9 0.05 0
0.9 0 0
0.95 0 0
0.9 0.05 0
0.95 0.05 0
0.95 0 0
1 0 0
0.95 0.05 0
1 0.05 0
1 0 0
1.05 0 0
1 0.05 0
1.05 0.05 0
1.05 0 0
1.1 0 0
1.05 0.05 0
1.1 0.05 0
1.1 0 0
1.15 0 0
1.1 0.05 0
1.15 0.05 0
1.15 0 0
1.2 0 0
1.15 0.05 0
1.2 0.05 0
1.2 0 0
1.25 0 0
1.2 0.05 0
1.25 0.05 0
1.25 0 0
1.3 0 0
1.25 0.05 0
1.3 0.05 0
1.4 0 0
1.45 0 0
1.4 0.05 0
1.45 0.05 0
1.45 0 0
1.5 0 0
1.45 0.05 0
1.5 0.05 0
1.5 0 0
1.55 0 0
1.5 0.05 0
1.55 0.05 0
1.55 0 0
1.6 0 0
1.55 0.05 0
1.6 0.05 0
1.6 0 0
1.65 0 0
1.6 0.05 0
1.65 0.05 0
1.65 0 0
1.7 0 0
1.65 0.05 0
1.7 0.05 0
1.7 0 0
1.75 0 0
1.7 0.05 0
1.75 0.05 0
1.75 0 0
1.8 0 0
1.75 0.05 0
1.8 0.05 0
1.8 0 0
1.85 0 0
1.8 0.05 0
1.85 0.05 0
1.85 0 0
1.9 0 0
1.85 0.05 0
1.9 0.05 0
1.9 0 0
1.95 0 0
1.9 0.05 0
1.95 0.05 0
1.95 0 0
2 0 0
1.95 0.05 0
2 0.05 0
0 0.05 0
0.05 0.05 0
0 0.1 0
0.05 0.1 0
0.05 0.05 0
0.1 0.05 0
0.05 0.1 0
0.1 0.1 0
0.1 0.05 0
0.15 0.05 0
0.1 0.1 0
0.15 0.1 0
0.15 0.05 0
0.2 0.05 0
0.15 0.1 0
0.2 0.1 0
0.2 0.05 0
0.25 0.05 0
0.2 0.1 0
0.25 0.1 0
0.25 0.05 0
0.3 0.05 0
0.25 0.1 0
0.3 0.1 0
0.3 0.05 0
0.35 0.05 0
0.3 0.1 0
0.35 0.1 0
0.35 0.05 0
0.4 0.05 0
0.35 0.1 0
0.4 0.1 0
0.4 0.05 0
0.45 0.05 0
0.4 0.1 0
0.45 0.1 0
1.1 0.05 0
1.15 0.05 0
1.1 0.1 0
1.15 0.1 0
1.15 0.05 0
1.2 0.05 0
1.15 0.1 0
1.2 0.1 0
1.2 0.05 0
1.25 0.05 0
1.2 0.1 0
1.25 0.1 0
1.25 0.05 0
1.3 0.05 0
1.25 0.1 0
1.3 0.1 0
1.3 0.05 0
1.35 0.05 0
1.3 0.1 0
1.35 0.1 0
1.5 0.05 0
1.55 0.05 0
1.5 0.1 0
1.55 0.1 0
1.55 0.05 0
1.6 0.05 0
1.55 0.1 0
1.6 0.1 0
1.6 0.05 0
1.65 0.05 0
1.6 0.1 0
1.65 0.1 0
1.65 0.05 0
1.7 0.05 0
1.65 0.1 0
1.7 0.1 0
1.7 0.05 0
1.75 0.05 0
1.7 0.1 0
1.75 0.1 0
1.75 0.05 0
1.8 0.05 0
1.75 0.1 0
1.8 0.1 0
1.8 0.05 0
1.85 0.05 0
1.8 0.1 0
1.85 0.1 0
1.85 0.05 0
1.9 0.05 0
1.85 0.1 0
1.9 0.1 0
1.9 0.05 0
1.95 0.05 0
1.9 0.1 0
1.95 0.1 0
1.95 0.05 0
2 0.05 0
1.95 0.1 0
2 0.1 0
0.1 0.1 0
0.15 0.1 0
0.1 0.15 0
0.15 0.15 0
0.15 0.1 0
0.2 0.1 0
0.15 0.15 0
0.2 0.15 0
0.2 0.1 0
0.25 0.1 0
0.2 0.15 0
0.25 0.15 0
0.25 0.1 0
0.3 0.1 0
0.25 0.15 0
0.3 0.15 0
0.3 0.1 0
0.35 0.1 0
0.3 0.15 0
0.35 0.15 0
0.35 0.1 0
0.4 0.1 0
0.35 0.15 0
0.4 0.15 0
1.15 0.1 0
1.2 0.1 0
1.15 0.15 0
1.2 0.15 0
1.2 0.1 0
1.25 0.1 0
1.2 0.15 0
1.25 0.15 0
1.3 0.1 0
1.35 0.1 0
1.3 0.15 0
1.35 0.15 0
1.35 0.1 0
1.4 0.1 0
1.35 0.15 0
1.4 0.15 0
1.4 0.1 0
1.45 0.1 0
1.4 0.15 0
1.45 0.15 0
1.6 0.1 0
1.65 0.1 0
1.6 0.15 0
1.65 0.15 0
1.65 0.1 0
1.7 0.1 0
1.65 0.15 0
1.7 0.15 0
1.7 0.1 0
1.75 0.1 0
1.7 0.15 0
1.75 0.15 0
1.75 0.1 0
1.8 0.1 0
1.75 0.15 0
1.8 0.15 0
1.8 0.1 0
1.85 0.1 0
1.8 0.15 0
1.85 0.15 0
1.85 0.1 0
1.9 0.1 0
1.85 0.15 0
1.9 0.15 0
1.9 0.1 0
1.95 0.1 0
1.9 0.15 0
1.95 0.15 0
1.95 0.1 0
2 0.1 0
1.95 0.15 0
2 0.15 0
0.2 0.15 0
0.25 0.15 0
0.2 0.2 0
0.25 0.2 0
0.25 0.15 0
0.3 0.15 0
0.25 0.2 0
0.3 0.2 0
0.3 0.15 0
0.35 0.15 0
0.3 0.2 0
0.35 0.2 0
0.35 0.15 0
0.4 0.15 0
0.35 0.2 0
0.4 0.2 0
0.4 0.15 0
0.45 0.15 0
0.4 0.2 0
0.45 0.2 0
0.6 0.15 0
0.65 0.15 0
0.6 0.2 0
0.65 0.2 0
0.65 0.15 0
0.7 0.15 0
0.65 0.2 0
0.7 0.2 0
0.7 0.15 0
0.75 0.15 0
0.7 0.2 0
0.75 0.2 0
0.75 0.15 0
0.8 0.15 0
0.75 0.2 0
0.8 0.2 0
0.8 0.15 0
0.85 0.15 0
0.8 0.2 0
0.85 0.2 0
0.85 0.15 0
0.9 0.15 0
0.85 0.2 0
0.9 0.2 0
0.9 0.15 0
0.95 0.15 0
0.9 0.2 0
0.95 0.2 0
0.95 0.15 0
1 0.15 0
0.95 0.2 0
1 0.2 0
1 0.15 0
1.05 0.15 0
1 0.2 0
1.05 0.2 0
1.15 0.15 0
1.2 0.15 0
1.15 0.2 0
1.2 0.2 0
1.4 0.15 0
1.45 0.15 0
1.4 0.2 0
1.45 0.2 0
1.45 0.15 0
1.5 0.15 0
1.45 0.2 0
1.5 0.2 0
1.65 0.15 0
1.7 0.15 0
1.65 0.2 0
1.7 0.2 0
1.7 0.15 0
1.75 0.15 0
1.7 0.2 0
1.75 0.2 0
1.75 0.15 0
1.8 0.15 0
1.75 0.2 0
1.8 0.2 0
1.8 0.15 0
1.85 0.15 0
1.8 0.2 0
1.85 0.2 0
1.85 0.15 0
1.9 0.15 0
1.85 0.2 0
1.9 0.2 0
1.9 0.15 0
1.95 0.15 0
1.9 0.2 0
1.95 0.2 0
1.95 0.15 0
2 0.15 0
1.95 0.2 0
2 0.2 0
0 0.2 0
0.05 0.2 0
0 0.25 0
0.05 0.25 0
0.05 0.2 0
0.1 0.2 0
0.05 0.25 0
0.1 0.25 0
0.3 0.2 0
0.35 0.2 0
0.3 0.25 0
0.35 0.25 0
0.35 0.2 0
0.4 0.2 0
0.35 0.25 0
0.4 0.25 0
0.4 0.2 0
0.45 0.2 0
0.4 0.25 0
0.45 0.25 0
0.45 0.2 0
0.5 0.2 0
0.45 0.25 0
0.5 0.25 0
0.7 0.2 0
0.75 0.2 0
0.7 0.25 0
0.75 0.25 0
0.75 0.2 0
0.8 0.2 0
0.75 0.25 0
0.8 0.25 0
0.8 0.2 0
0.85 0.2 0
0.8 0.25 0
0.85 0.25 0
0.85 0.2 0
0.9 0.2 0
0.85 0.25 0
0.9 0.25 0
0.9 0.2 0
0.95 0.2 0
0.9 0.25 0
0.95 0.25 0
0.95 0.2 0
1 0.2 0
0.95 0.25 0
1 0.25 0
1 0.2 0
1.05 0.2 0
1 0.25 0
1.05 0.25 0
1.1 0.2 0
1.15 0.2 0
1.1 0.25 0
1.15 0.25 0
1.25 0.2 0
1.3 0.2 0
1.25 0.25 0
1.3 0.25 0
1.45 0.2 0
1.5 0.2 0
1.45 0.25 0
1.5 0.25 0
1.5 0.2 0
1.55 0.2 0
1.5 0.25 0
1.55 0.25 0
1.55 0.2 0
1.6 0.2 0
1.55 0.25 0
1.6 0.25 0
1.75 0.2 0
1.8 0.2 0
1.75 0.25 0
1.8 0.25 0
1.8 0.2 0
1.85 0.2 0
1.8 0.25 0
1.85 0.25 0
1.85 0.2 0
1.9 0.2 0
1.85 0.25 0
1.9 0.25 0
1.9 0.2 0
1.95 0.2 0
1.9 0.25 0
1.95 0.25 0
1.95 0.2 0
2 0.2 0
1.95 0.25 0
2 0.25 0
0 0.25 0
0.05 0.25 0
0 0.3 0
0.05 0.3 0
0.05 0.25 0
0.1 0.25 0
0.05 0.3 0
0.1 0.3 0
0.1 0.25 0
0.15 0.25 0
0.1 0.3 0
0.15 0.3 0
0.15 0.25 0
0.2 0.25 0
0.15 0.3 0
0.2 0.3 0
0.4 0.25 0
0.45 0.25 0
0.4 0.3 0
0.45 0.3 0
0.45 0.25 0
0.5 0.25 0
0.45 0.3 0
0.5 0.3 0
0.5 0.25 0
0.55 0.25 0
0.5 0.3 0
0.55 0.3 0
0.55 0.25 0
0.6 0.25 0
0.55 0.3 0
0.6 0.3 0
0.85 0.25 0
0.9 0.25 0
0.85 0.3 0
0.9 0.3 0
0.9 0.25 0
0.95 0.25 0
0.9 0.3 0
0.95 0.3 0
0.95 0.25 0
1 0.25 0
0.95 0.3 0
1 0.3 0
1.2 0.25 0
1.25 0.25 0
1.2 0.3 0
1.25 0.3 0
1.25 0.25 0
1.3 0.25 0
1.25 0.3 0
1.3 0.3 0
1.3 0.25 0
1.35 0.25 0
1.3 0.3 0
1.35 0.3 0
1.35 0.25 0
1.4 0.25 0
1.35 0.3 0
1.4 0.3 0
1.55 0.25 0
1.6 0.25 0
1.55 0.3 0
1.6 0.3 0
1.6 0.25 0
1.65 0.25 0
1.6 0.3 0
1.65 0.3 0
1.65 0.25 0
1.7 0.25 0
1.65 0.3 0
1.7 0.3 0
1.85 0.25 0
1.9 0.25 0
1.85 0.3 0
1.9 0.3 0
1.9 0.25 0
1.95 0.25 0
1.9 0.3 0
1.95 0.3 0
1.95 0.25 0
2 0.25 0
1.95 0.3 0
2 0.3 0
0 0.3 0
0.05 0.3 0
0 0.35 0
0.05 0.35 0
0.05 0.3 0
0.1 0.3 0
0.05 0.35 0
0.1 0.35 0
0.1 0.3 0
0.15 0.3 0
0.1 0.35 0
0.15 0.35 0
0.15 0.3 0
0.2 0.3 0
0.15 0.35 0
0.2 0.35 0
0.2 0.3 0
0.25 0.3 0
0.2 0.35 0
0.25 0.35 0
0.25 0.3 0
0.3 0.3 0
0.25 0.35 0
0.3 0.35 0
0.5 0.3 0
0.55 0.3 0
0.5 0.35 0
0.55 0.35 0
0.55 0.3 0
0.6 0.3 0
0.55 0.35 0
0.6 0.35 0
0.6 0.3 0
0.65 0.3 0
0.6 0.35 0
0.65 0.35 0
0.65 0.3 0
0.7 0.3 0
0.65 0.35 0
0.7 0.35 0
0.95 0.3 0
1 0.3 0
0.95 0.35 0
1 0.35 0
1.05 0.3 0
1.1 0.3 0
1.05 0.35 0
1.1 0.35 0
1.2 0.3 0
1.25 0.3 0
1.2 0.35 0
1.25 0.35 0
1.25 0.3 0
1.3 0.3 0
1.25 0.35 0
1.3 0.35 0
1.3 0.3 0
1.35 0.3 0
1.3 0.35 0
1.35 0.35 0
1.35 0.3 0
1.4 0.3 0
1.35 0.35 0
1.4 0.35 0
1.4 0.3 0
1.45 0.3 0
1.4 0.35 0
1.45 0.35 0
1.45 0.3 0
1.5 0.3 0
1.45 0.35 0
1.5 0.35 0
1.65 0.3 0
1.7 0.3 0
1.65 0.35 0
1.7 0.35 0
1.7 0.3 0
1.75 0.3 0
1.7 0.35 0
1.75 0.35 0
1.95 0.3 0
2 0.3 0
1.95 0.35 0
2 0.35 0
0 0.35 0
0.05 0.35 0
0 0.4 0
0.05 0.4 0
0.05 0.35 0
0.1 0.35 0
0.05 0.4 0
0.1 0.4 0
0.1 0.35 0
0.15 0.35 0
0.1 0.4 0
0.15 0.4 0
0.15 0.35 0
0.2 0.35 0
0.15 0.4 0
0.2 0.4 0
0.2 0.35 0
0.25 0.35 0
0.2 0.4 0
0.25 0.4 0
0.25 0.35 0
0.3 0.35 0
0.25 0.4 0
0.3 0.4 0
0.3 0.35 0
0.35 0.35 0
0.3 0.4 0
0.35 0.4 0
0.35 0.35 0
0.4 0.35 0
0.35 0.4 0
0.4 0.4 0
0.6 0.35 0
0.65 0.35 0
0.6 0.4 0
0.65 0.4 0
0.65 0.35 0
0.7 0.35 0
0.65 0.4 0
0.7 0.4 0
0.7 0.35 0
0.75 0.35 0
0.7 0.4 0
0.75 0.4 0
0.75 0.35 0
0.8 0.35 0
0.75 0.4 0
0.8 0.4 0
0.8 0.35 0
0.85 0.35 0
0.8 0.4 0
0.85 0.4 0
1.15 0.35 0
1.2 0.35 0
1.15 0.4 0
1.2 0.4 0
1.2 0.35 0
1.25 0.35 0
1.2 0.4 0
1.25 0.4 0
1.25 0.35 0
1.3 0.35 0
1.25 0.4 0
1.3 0.4 0
1.3 0.35 0
1.35 0.35 0
1.3 0.4 0
1.35 0.4 0
1.35 0.35 0
1.4 0.35 0
1.35 0.4 0
1.4 0.4 0
1.4 0.35 0
1.45 0.35 0
1.4 0.4 0
1.45 0.4 0
1.45 0.35 0
1.5 0.35 0
1.45 0.4 0
1.5 0.4 0
1.5 0.35 0
1.55 0.35 0
1.5 0.4 0
1.55 0.4 0
1.7 0.35 0
1.75 0.35 0
1.7 0.4 0
1.75 0.4 0
1.75 0.35 0
1.8 0.35 0
1.75 0.4 0
1.8 0.4 0
1.8 0.35 0
1.85 0.35 0
1.8 0.4 0
1.85 0.4 0
0 0.4 0
0.05 0.4 0
0 0.45 0
0.05 0.45 0
0.05 0.4 0
0.1 0.4 0
0.05 0.45 0
0.1 0.45 0
0.1 0.4 0
0.15 0.4 0
0.1 0.45 0
0.15 0.45 0
0.15 0.4 0
0.2 0.4 0
0.15 0.45 0
0.2 0.45 0
0.2 0.4 0
0.25 0.4 0
0.2 0.45 0
0.25 0.45 0
0.25 0.4 0
0.3 0.4 0
0.25 0.45 0
0.3 0.45 0
0.3 0.4 0
0.35 0.4 0
0.3 0.45 0
0.35 0.45 0
0.35 0.4 0
0.4 0.4 0
0.35 0.45 0
0.4 0.45 0
0.4 0.4 0
0.45 0.4 0
0.4 0.45 0
0.45 0.45 0
0.45 0.4 0
0.5 0.4 0
0.45 0.45 0
0.5 0.45 0
0.5 0.4 0
0.55 0.4 0
0.5 0.45 0
0.55 0.45 0
0.7 0.4 0
0.75 0.4 0
0.7 0.45 0
0.75 0.45 0
0.75 0.4 0
0.8 0.4 0
0.75 0.45 0
0.8 0.45 0
0.8 0.4 0
0.85 0.4 0
0.8 0.45 0
0.85 0.45 0
0.85 0.4 0
0.9 0.4 0
0.85 0.45 0
0.9 0.45 0
0.9 0.4 0
0.95 0.4 0
0.9 0.45 0
0.95 0.45 0
0.95 0.4 0
1 0.4 0
0.95 0.45 0
1 0.45 0
1 0.4 0
1.05 0.4 0
1 0.45 0
1.05 0.45 0
1.15 0.4 0
1.2 0.4 0
1.15 0.45 0
1.2 0.45 0
1.2 0.4 0
1.25 0.4 0
1.2 0.45 0
1.25 0.45 0
1.25 0.4 0
1.3 0.4 0
1.25 0.45 0
1.3 0.45 0
1.3 0.4 0
1.35 0.4 0
1.3 0.45 0
1.35 0.45 0
1.35 0.4 0
1.4 0.4 0
1.35 0.45 0
1.4 0.45 0
1.4 0.4 0
1.45 0.4 0
1.4 0.45 0
1.45 0.45 0
1.45 0.4 0
1.5 0.4 0
1.45 0.45 0
1.5 0.45 0
1.5 0.4 0
1.55 0.4 0
1.5 0.45 0
1.55 0.45 0
1.55 0.4 0
1.6 0.4 0
1.55 0.45 0
1.6 0.45 0
1.6 0.4 0
1.65 0.4 0
1.6 0.45 0
1.65 0.45 0
1.8 0.4 0
1.85 0.4 0
1.8 0.45 0
1.85 0.45 0
1.85 0.4 0
1.9 0.4 0
1.85 0.45 0
1.9 0.45 0
1.9 0.4 0
1.95 0.4 0
1.9 0.45 0
1.95 0.45 0
0 0.45 0
0.05 0.45 0
0 0.5 0
0.05 0.5 0
0.05 0.45 0
0.1 0.45 0
0.05 0.5 0
0.1 0.5 0
0.1 0.45 0
0.15 0.45 0
0.1 0.5 0
0.15 0.5 0
0.15 0.45 0
0.2 0.45 0
0.15 0.5 0
0.2 0.5 0
0.2 0.45 0
0.25 0.45 0
[...]
POINT_DATA 6584
SCALARS x_displacement double 1
LOOKUP_TABLE default
0 1.37719 0 0.795935 1.37719 2.42406 0.795935 1.63715 2.42406 3.29516 1.63715 2.38174 3.29516 4.04084 2.38174 3.04227 4.04084 4.6955 3.04227 3.63676 4.6955 5.29777 3.63676 4.1793 5.29777 5.8908 4.1793 4.68669 5.8908 6.50538 4.68669 5.18984 6.50538 7.15706 5.18984 5.69438 7.15706 7.83038 5.69438 6.21477 7.83038 8.491 6.21477 6.75166 8.491 9.1005 6.75166 7.31934 9.1005 9.66207 7.31934 7.91341 9.66207 10.2059 7.91341 8.52675 10.2059 10.7544 8.52675 9.14314 10.7544 11.31 9.14314 9.75838 11.31 11.8723 9.75838 10.3728 11.8723 12.4413 10.3728 10.9866 12.4413 13.0167 10.9866 11.6002 13.0167 13.5983 11.6002 12.2125 13.5983 14.2031 12.2125 12.8056 14.2031 14.8774 12.8056 13.3574 14.8774 15.6089 13.3574 13.8871 15.6089 16.3023 13.8871 14.3639 16.3023 16.8214 14.3639 14.7612 16.8214 17.1015 14.7612 15.0835 18.0157 17.7804 15.7228 15.876 17.7804 17.5525 15.876 16.3039 17.5525 18.2128 16.3039 15.8715 18.2128 18.7549 15.8715 15.981 18.7549 19.129 15.981 16.6661 19.129 19.6071 16.6661 16.874 19.6071 19.7381 16.874 17.1698 19.7381 19.8151 17.1698 17.454 19.8151 19.8917 17.454 17.643 19.8917 19.9269 17.643 17.7461 19.9269 19.9242 17.7461 17.7832 19.9242 19.918 17.7832 17.79 0 0.795935 0 0.528846 0.795935 1.63715 0.528846 1.09354 1.63715 2.38174 1.09354 1.65798 2.38174 3.04227 1.65798 2.19537 3.04227 3.63676 2.19537 2.69128 3.63676 4.1793 2.69128 3.14035 4.1793 4.68669 3.14035 3.53067 4.68669 5.18984 3.53067 3.85712 5.18984 5.69438 3.85712 4.23274 13.3574 13.8871 11.9757 12.2975 13.8871 14.3639 12.2975 12.5698 14.3639 14.7612 12.5698 12.8553 14.7612 15.0835 12.8553 13.1246 15.0835 15.405 13.1246 13.3925 16.3039 15.8715 14.2982 14.5162 15.8715 15.981 14.5162 15.2073 15.981 16.6661 15.2073 12.8322 16.6661 16.874 12.8322 14.2987 16.874 17.1698 14.2987 14.9255 17.1698 17.454 14.9255 15.2961 17.454 17.643 15.2961 15.5575 17.643 17.7461 15.5575 15.685 17.7461 17.7832 15.685 15.7237 17.7832 17.79 15.7237 15.7294 1.09354 1.65798 0.598779 1.02239 1.65798 2.19537 1.02239 1.43505 2.19537 2.69128 1.43505 1.84539 2.69128 3.14035 1.84539 2.21969 3.14035 3.53067 2.21969 2.53566 3.53067 3.85712 2.53566 2.77234 12.2975 12.5698 10.7362 10.7471 12.5698 12.8553 10.7471 10.7983 13.1246 13.3925 11.0531 11.3492 13.3925 13.6366 11.3492 11.6313 13.6366 13.9462 11.6313 11.9323 15.2073 12.8322 12.6754 13.4366 12.8322 14.2987 13.4366 13.0257 14.2987 14.9255 13.0257 13.2455 14.9255 15.2961 13.2455 13.433 15.2961 15.5575 13.433 13.6253 15.5575 15.685 13.6253 13.7243 15.685 15.7237 13.7243 13.8082 15.7237 15.7294 13.8082 13.7879 1.43505 1.84539 0.726386 1.08528 1.84539 2.21969 1.08528 1.40115 2.21969 2.53566 1.40115 1.71461 2.53566 2.77234 1.71461 2.0281 2.77234 3.07992 2.0281 2.33977 3.28587 3.51153 3.26351 3.47855 3.51153 4.9232 3.47855 4.42801 4.9232 6.37019 4.42801 3.60052 6.37019 6.75151 3.60052 7.95196 6.75151 7.86934 7.95196 6.50956 7.86934 8.46822 6.50956 6.9647 8.46822 9.11914 6.9647 8.39183 9.11914 9.89989 8.39183 9.99046 9.89989 11.3232 9.99046 9.18528 10.7362 10.7471 9.08605 9.02797 11.6313 11.9323 9.59801 9.89467 11.9323 12.2232 9.89467 10.1945 13.4366 13.0257 11.1419 11.3943 13.0257 13.2455 11.3943 11.7228 13.2455 13.433 11.7228 11.323 13.433 13.6253 11.323 11.5653 13.6253 13.7243 11.5653 11.9623 13.7243 13.8082 11.9623 12.0486 13.8082 13.7879 12.0486 11.9828 0 -0.209669 0 -0.231118 -0.209669 0.0523534 -0.231118 -0.766688 1.40115 1.71461 0.636128 0.960795 1.71461 2.0281 0.960795 1.26488 2.0281 2.33977 1.26488 1.58761 2.33977 2.65157 1.58761 1.91461 4.42801 3.60052 3.33222 3.85822 3.60052 7.95196 3.85822 2.65361 7.95196 6.50956 2.65361 4.87927 6.50956 6.9647 4.87927 3.78085 6.9647 8.39183 3.78085 3.68732 8.39183 9.99046 3.68732 7.28594 9.99046 9.18528 7.28594 7.43933 9.06107 9.08605 7.50064 7.50791 8.82558 8.92339 7.44166 6.48524 9.89467 10.1945 7.89683 8.2091 10.1945 10.4739 8.2091 8.49298 10.4739 10.803 8.49298 8.79536 11.7228 11.323 9.74368 9.98167 11.323 11.5653 9.98167 10.443 11.5653 11.9623 10.443 9.88475 11.9623 12.0486 9.88475 10.5626 12.0486 11.9828 10.5626 10.374 0 -0.231118 0 -0.0617811 -0.231118 -0.766688 -0.0617811 -0.0706592 -0.766688 -0.179903 -0.0706592 -0.202157 -0.179903 0.0242422 -0.202157 -0.699392 1.26488 1.58761 0.505426 0.83857 1.58761 1.91461 0.83857 1.15507 1.91461 2.22047 1.15507 1.49926 2.22047 2.55606 1.49926 1.84704 4.87927 3.78085 3.66547 4.22701 3.78085 3.68732 4.22701 5.12657 3.68732 7.28594 5.12657 5.8764 7.5447 7.44166 5.7463 5.45952 7.44166 6.48524 5.45952 5.63618 6.48524 7.48883 5.63618 5.50891 7.48883 7.56864 5.50891 5.51282 8.49298 8.79536 6.49205 6.80265 8.79536 9.07113 6.80265 7.07679 9.07113 9.36166 7.07679 7.38099 10.443 9.88475 8.34734 8.57912 9.88475 10.5626 8.57912 8.902 10.5626 10.374 8.902 10.7351 0 -0.0617811 0 -0.0164906 -0.0617811 -0.0706592 -0.0164906 -0.130594 -0.0706592 -0.202157 -0.130594 -0.144773 -0.202157 -0.699392 -0.144773 -0.123893 -0.699392 -0.337749 -0.123893 -0.350665 -0.337749 -0.121961 -0.350665 -0.865245 1.15507 1.49926 0.408524 0.791539 1.49926 1.84704 0.791539 1.11284 1.84704 2.18365 1.11284 1.44517 2.18365 2.5687 1.44517 1.77064 5.12657 5.8764 3.52174 4.13208 5.78725 5.81873 4.17529 4.19307 5.7463 5.45952 4.46371 4.05617 5.45952 5.63618 4.05617 3.99088 5.63618 5.50891 3.99088 4.16357 5.50891 5.51282 4.16357 4.22081 5.51282 5.8857 4.22081 4.40383 5.8857 6.17942 4.40383 3.93714 7.07679 7.38099 5.03613 5.33515 7.38099 7.69082 5.33515 5.63438 8.902 10.7351 6.74408 6.27559 0 -0.0164906 0 -0.0274724 -0.0164906 -0.130594 -0.0274724 -0.0643848 -0.130594 -0.144773 -0.0643848 -0.0987778 -0.144773 -0.123893 -0.0987778 -0.21866 -0.123893 -0.350665 -0.21866 -0.237796 -0.350665 -0.865245 -0.237796 -0.25698 -0.865245 -0.434298 -0.25698 -0.583981 -0.434298 -0.279635 -0.583981 -0.939734 1.11284 1.44517 0.395766 0.733691 1.44517 1.77064 0.733691 0.998041 1.77064 2.09401 0.998041 1.2739 2.09401 2.4206 1.2739 1.55721 2.4206 2.79158 1.55721 1.83258 4.23825 4.46371 2.42211 1.41785 4.46371 4.05617 1.41785 2.26792 4.05617 3.99088 2.26792 2.61023 3.99088 4.16357 2.61023 2.81822 4.16357 4.22081 2.81822 3.01816 4.22081 4.40383 3.01816 3.31714 4.40383 3.93714 3.31714 4.1009 3.93714 4.60244 4.1009 2.02961 5.33515 5.63438 3.33918 3.6028 5.63438 5.91533 3.6028 3.84035 5.91533 6.22954 3.84035 4.10017 0 -0.0274724 0 -0.011456 -0.0274724 -0.0643848 -0.011456 -0.032105 -0.0643848 -0.0987778 -0.032105 -0.0687636 -0.0987778 -0.21866 -0.0687636 -0.100036 -0.21866 -0.237796 -0.100036 -0.136893 -0.237796 -0.25698 -0.136893 -0.302679 -0.25698 -0.583981 -0.302679 -0.403649 -0.583981 -0.939734 -0.403649 -0.761374 -0.939734 0.0511861 -0.761374 -2.00453 0.0511861 -0.269358 -2.00453 -0.331442 -0.269358 0.0753836 -0.331442 -0.898518 0.998041 1.2739 0.299961 0.545909 1.2739 1.55721 0.545909 0.737395 1.55721 1.83258 0.737395 0.892065 1.83258 2.07069 0.892065 1.00924 2.07069 2.27943 1.00924 1.06642 2.27943 2.43984 1.06642 1.048 2.43984 2.48214 1.048 1.03675 2.42211 1.41785 1.22529 1.30043 1.41785 2.26792 1.30043 1.19335 2.26792 2.61023 1.19335 1.28233 2.61023 2.81822 1.28233 1.42165 2.81822 3.01816 1.42165 1.53925 3.01816 3.31714 1.53925 1.57836 3.31714 4.1009 1.57836 1.52178 4.1009 2.02961 1.52178 1.74126 2.02961 2.7253 1.74126 1.36319 2.7253 2.96824 1.36319 0.93393 3.84035 4.10017 1.78455 1.98611 4.10017 4.35958 1.98611 2.19616 4.35958 4.6297 2.19616 2.41339 0 -0.011456 0 -2.28252e-12 -0.011456 -0.032105 -2.28252e-12 -7.97891e-12 -0.032105 -0.0687636 -7.97891e-12 -1.50632e-11 -0.0687636 -0.100036 -1.50632e-11 -2.29022e-11 -0.100036 -0.136893 -2.29022e-11 -2.70249e-11 -0.136893 -0.302679 -2.70249e-11 -2.49247e-11 -0.302679 -0.403649 -2.49247e-11 -1.23336e-11 -0.403649 -0.761374 -1.23336e-11 -3.9076e-12 -0.761374 -2.00453 -3.9076e-12 2.69594e-12 -2.00453 -0.331442 2.69594e-12 -1.16005e-11 -0.331442 -0.898518 -1.16005e-11 -1.02688e-12 -0.898518 -0.228325 -1.02688e-12 1.28575e-12 -0.228325 -0.0216608 1.28575e-12 1.83898e-12 0.545909 0.737395 8.86767e-13 6.9278e-13 0.737395 0.892065 6.9278e-13 5.49445e-13 0.892065 1.00924 5.49445e-13 4.89811e-13 1.00924 1.06642 4.89811e-13 4.33067e-13 1.06642 1.048 4.33067e-13 3.6976e-13 1.08131 1.22529 1.798e-12 -2.34144e-11 1.22529 1.30043 -2.34144e-11 3.84614e-10 1.30043 1.19335 3.84614e-10 2.63742e-10 1.19335 1.28233 2.63742e-10 4.14937e-10 1.28233 1.42165 4.14937e-10 4.57657e-10 1.42165 1.53925 4.57657e-10 7.91788e-10 1.53925 1.57836 7.91788e-10 9.3819e-10 1.57836 1.52178 9.3819e-10 1.93571e-10 1.52178 1.74126 1.93571e-10 -8.09224e-10 1.74126 1.36319 -8.09224e-10 -5.56691e-10 1.36319 0.93393 -5.56691e-10 -2.38175e-10 0.93393 1.30344 -2.38175e-10 -1.66396e-12 1.30344 1.57915 -1.66396e-12 9.58653e-12 1.98611 2.19616 1.09945e-12 2.66123e-13 2.19616 2.41339 2.66123e-13 1.06781e-13 2.41339 2.42311 1.06781e-13 5.52044e-14 0 -2.28252e-12 0 0.011456 -2.28252e-12 -7.97891e-12 0.011456 0.032105 -7.97891e-12 -1.50632e-11 0.032105 0.0687636 -1.50632e-11 -2.29022e-11 0.0687636 0.100036 -2.29022e-11 -2.70249e-11 0.100036 0.136893 -2.70249e-11 -2.49247e-11 0.136893 0.302679 -2.49247e-11 -1.23336e-11 0.302679 0.403649 -1.23336e-11 -3.9076e-12 0.403649 0.761374 -3.9076e-12 2.69594e-12 0.761374 2.00453 2.69594e-12 -1.16005e-11 2.00453 0.331442 -1.16005e-11 -1.02688e-12 0.331442 0.898518 -1.02688e-12 1.28575e-12 0.898518 0.228325 1.28575e-12 1.83898e-12 0.228325 0.0216608 8.86767e-13 6.9278e-13 -0.545909 -0.737395 6.9278e-13 5.49445e-13 -0.737395 -0.892065 5.49445e-13 4.89811e-13 -0.892065 -1.00924 4.89811e-13 4.33067e-13 -1.00924 -1.06642 4.33067e-13 3.6976e-13 -1.06642 -1.048 1.798e-12 -2.34144e-11 -1.08131 -1.22529 -2.34144e-11 3.84614e-10 -1.22529 -1.30043 3.84614e-10 2.63742e-10 -1.30043 -1.19335 2.63742e-10 4.14937e-10 -1.19335 -1.28233 4.14937e-10 4.57657e-10 -1.28233 -1.42165 4.57657e-10 7.91788e-10 -1.42165 -1.53925 7.91788e-10 9.3819e-10 -1.53925 -1.57836 9.3819e-10 1.93571e-10 -1.57836 -1.52178 1.93571e-10 -8.09224e-10 -1.52178 -1.74126 -8.09224e-10 -5.56691e-10 -1.74126 -1.36319 -5.56691e-10 -2.38175e-10 -1.36319 -0.93393 -2.38175e-10 -1.66396e-12 -0.93393 -1.30344 -1.66396e-12 9.58653e-12 -1.30344 -1.57915 1.09945e-12 2.66123e-13 -1.98611 -2.19616 2.66123e-13 1.06781e-13 -2.19616 -2.41339 1.06781e-13 5.52044e-14 -2.41339 -2.42311 0 0.011456 0 0.0274724 0.011456 0.032105 0.0274724 0.0643848 0.032105 0.0687636 0.0643848 0.0987778 0.0687636 0.100036 0.0987778 0.21866 0.100036 0.136893 0.21866 0.237796 0.136893 0.302679 0.237796 0.25698 0.302679 0.403649 0.25698 0.583981 0.403649 0.761374 0.583981 0.939734 0.761374 2.00453 0.939734 -0.0511861 2.00453 0.331442 -0.0511861 0.269358 0.331442 0.898518 0.269358 -0.0753836 -0.299961 -0.545909 -0.998041 -1.2739 -0.545909 -0.737395 -1.2739 -1.55721 -0.737395 -0.892065 -1.55721 -1.83258 -0.892065 -1.00924 -1.83258 -2.07069 -1.00924 -1.06642 -2.07069 -2.27943 -1.06642 -1.048 -2.27943 -2.43984 -1.048 -1.03675 -2.43984 -2.48214 -1.22529 -1.30043 -2.42211 -1.41785 -1.30043 -1.19335 -1.41785 -2.26792 -1.19335 -1.28233 -2.26792 -2.61023 -1.28233 -1.42165 -2.61023 -2.81822 -1.42165 -1.53925 -2.81822 -3.01816 -1.53925 -1.57836 -3.01816 -3.31714 -1.57836 -1.52178 -3.31714 -4.1009 -1.52178 -1.74126 -4.1009 -2.02961 -1.74126 -1.36319 -2.02961 -2.7253 -1.36319 -0.93393 -2.7253 -2.96824 -1.78455 -1.98611 -3.84035 -4.10017 -1.98611 -2.19616 -4.10017 -4.35958 -2.19616 -2.41339 -4.35958 -4.6297 0 0.0274724 0 0.0164906 0.0274724 0.0643848 0.0164906 0.130594 0.0643848 0.0987778 0.130594 0.144773 0.0987778 0.21866 0.144773 0.123893 0.21866 0.237796 0.123893 0.350665 0.237796 0.25698 0.350665 0.865245 0.25698 0.583981 0.865245 0.434298 0.583981 0.939734 0.434298 0.279635 -0.395766 -0.733691 -1.11284 -1.44517 -0.733691 -0.998041 -1.44517 -1.77064 -0.998041 -1.2739 -1.77064 -2.09401 -1.2739 -1.55721 -2.09401 -2.4206 -1.55721 -1.83258 -2.4206 -2.79158 -2.42211 -1.41785 -4.23825 -4.46371 -1.41785 -2.26792 -4.46371 -4.05617 -2.26792 -2.61023 -4.05617 -3.99088 -2.61023 -2.81822 -3.99088 -4.16357 -2.81822 -3.01816 -4.16357 -4.22081 -3.01816 -3.31714 -4.22081 -4.40383 -3.31714 -4.1009 -4.40383 -3.93714 -4.1009 -2.02961 -3.93714 -4.60244 -3.33918 -3.6028 -5.33515 -5.63438 -3.6028 -3.84035 -5.63438 -5.91533 -3.84035 -4.10017 -5.91533 -6.22954 0 0.0164906 0 0.0617811 0.0164906 0.130594 0.0617811 0.0706592 0.130594 0.144773 0.0706592 0.202157 0.144773 0.123893 0.202157 0.699392 0.123893 0.350665 0.699392 0.337749 0.350665 0.865245 0.337749 0.121961 -0.408524 -0.791539 -1.15507 -1.49926 -0.791539 -1.11284 -1.49926 -1.84704 -1.11284 -1.44517 -1.84704 -2.18365 -1.44517 -1.77064 -2.18365 -2.5687 -3.52174 -4.13208 -5.12657 -5.8764 -4.17529 -4.19307 -5.78725 -5.81873 -4.46371 -4.05617 -5.7463 -5.45952 -4.05617 -3.99088 -5.45952 -5.63618 -3.99088 -4.16357 -5.63618 -5.50891 -4.16357 -4.22081 -5.50891 -5.51282 -4.22081 -4.40383 -5.51282 -5.8857 -4.40383 -3.93714 -5.8857 -6.17942 -5.03613 -5.33515 -7.07679 -7.38099 -5.33515 -5.63438 -7.38099 -7.69082 -6.74408 -6.27559 -8.902 -10.7351 0 0.0617811 0 0.231118 0.0617811 0.0706592 0.231118 0.766688 0.0706592 0.202157 0.766688 0.179903 0.202157 0.699392 0.179903 -0.0242422 -0.505426 -0.83857 -1.26488 -1.58761 -0.83857 -1.15507 -1.58761 -1.91461 -1.15507 -1.49926 -1.91461 -2.22047 -1.49926 -1.84704 -2.22047 -2.55606 -3.66547 -4.22701 -4.87927 -3.78085 -4.22701 -5.12657 -3.78085 -3.68732 -5.12657 -5.8764 -3.68732 -7.28594 -5.7463 -5.45952 -7.5447 -7.44166 -5.45952 -5.63618 -7.44166 -6.48524 -5.63618 -5.50891 -6.48524 -7.48883 -5.50891 -5.51282 -7.48883 -7.56864 -6.49205 -6.80265 -8.49298 -8.79536 -6.80265 -7.07679 -8.79536 -9.07113 -7.07679 -7.38099 -9.07113 -9.36166 -8.34734 -8.57912 -10.443 -9.88475 -8.57912 -8.902 -9.88475 -10.5626 -8.902 -10.7351 -10.5626 -10.374 0 0.231118 0 0.209669 0.231118 0.766688 0.209669 -0.0523534 -0.636128 -0.960795 -1.40115 -1.71461 -0.960795 -1.26488 -1.71461 -2.0281 -1.26488 -1.58761 -2.0281 -2.33977 -1.58761 -1.91461 -2.33977 -2.65157 -3.33222 -3.85822 -4.42801 -3.60052 -3.85822 -2.65361 -3.60052 -7.95196 -2.65361 -4.87927 -7.95196 -6.50956 -4.87927 -3.78085 -6.50956 -6.9647 -3.78085 -3.68732 -6.9647 -8.39183 -3.68732 -7.28594 -8.39183 -9.99046 -7.28594 -7.43933 -9.99046 -9.18528 -7.50064 -7.50791 -9.06107 -9.08605 -7.44166 -6.48524 -8.82558 -8.92339 -7.89683 -8.2091 -9.89467 -10.1945 -8.2091 -8.49298 -10.1945 -10.4739 -8.49298 -8.79536 -10.4739 -10.803 -9.74368 -9.98167 -11.7228 -11.323 -9.98167 -10.443 -11.323 -11.5653 -10.443 -9.88475 -11.5653 -11.9623 -9.88475 -10.5626 -11.9623 -12.0486 -10.5626 -10.374 -12.0486 -11.9828 -0.726386 -1.08528 -1.43505 -1.84539 -1.08528 -1.40115 -1.84539 -2.21969 -1.40115 -1.71461 -2.21969 -2.53566 -1.71461 -2.0281 -2.53566 -2.77234 -2.0281 -2.33977 -2.77234 -3.07992 -3.26351 -3.47855 -3.28587 -3.51153 -3.47855 -4.42801 -3.51153 -4.9232 -4.42801 -3.60052 -4.9232 -6.37019 -3.60052 -7.95196 -6.37019 -6.75151 -7.95196 -6.50956 -6.75151 -7.86934 -6.50956 -6.9647 -7.86934 -8.46822 -6.9647 -8.39183 -8.46822 -9.11914 -8.39183 -9.99046 -9.11914 -9.89989 -9.99046 -9.18528 -9.89989 -11.3232 -9.08605 -9.02797 -10.7362 -10.7471 -9.59801 -9.89467 -11.6313 -11.9323 -9.89467 -10.1945 -11.9323 -12.2232 -11.1419 -11.3943 -13.4366 -13.0257 -11.3943 -11.7228 -13.0257 -13.2455 -11.7228 -11.323 -13.2455 -13.433 -11.323 -11.5653 -13.433 -13.6253 -11.5653 -11.9623 -13.6253 -13.7243 -11.9623 -12.0486 -13.7243 -13.8082 -12.0486 -11.9828 -13.8082 -13.7879 -0.598779 -1.02239 -1.09354 -1.65798 -1.02239 -1.43505 -1.65798 -2.19537 -1.43505 -1.84539 -2.19537 -2.69128 -1.84539 -2.21969 -2.69128 -3.14035 -2.21969 -2.53566 -3.14035 -3.53067 -2.53566 -2.77234 -3.53067 -3.85712 -10.7362 -10.7471 -12.2975 -12.5698 -10.7471 -10.7983 -12.5698 -12.8553 -11.0531 -11.3492 -13.1246 -13.3925 -11.3492 -11.6313 -13.3925 -13.6366 -11.6313 -11.9323 -13.6366 -13.9462 -12.6754 -13.4366 -15.2073 -12.8322 -13.4366 -13.0257 -12.8322 -14.2987 -13.0257 -13.2455 -14.2987 -14.9255 -13.2455 -13.433 -14.9255 -15.2961 -13.433 -13.6253 -15.2961 -15.5575 -13.6253 -13.7243 -15.5575 -15.685 -13.7243 -13.8082 -15.685 -15.7237 -13.8082 -13.7879 -15.7237 -15.7294 0 -0.528846 0 -0.795935 -0.528846 -1.09354 -0.795935 -1.63715 -1.09354 -1.65798 -1.63715 -2.38174 -1.65798 -2.19537 -2.38174 -3.04227 -2.19537 -2.69128 -3.04227 -3.63676 -2.69128 -3.14035 -3.63676 -4.1793 -3.14035 -3.53067 -4.1793 -4.68669 -3.53067 -3.85712 -4.68669 -5.18984 -3.85712 -4.23274 -5.18984 -5.69438 -11.9757 -12.2975 -13.3574 -13.8871 -12.2975 -12.5698 -13.8871 -14.3639 -12.5698 -12.8553 -14.3639 -14.7612 -12.8553 -13.1246 -14.7612 -15.0835 -13.1246 -13.3925 -15.0835 -15.405 -14.2982 -14.5162 -16.3039 -15.8715 -14.5162 -15.2073 -15.8715 -15.981 -15.2073 -12.8322 -15.981 -16.6661 -12.8322 -14.2987 -16.6661 -16.874 -14.2987 -14.9255 -16.874 -17.1698 -14.9255 -15.2961 -17.1698 -17.454 -15.2961 -15.5575 -17.454 -17.643 -15.5575 -15.685 -17.643 -17.7461 -15.685 -15.7237 -17.7461 -17.7832 -15.7237 -15.7294 -17.7832 -17.79 0 -0.795935 0 -1.37719 -0.795935 -1.63715 -1.37719 -2.42406 -1.63715 -2.38174 -2.42406 -3.29516 -2.38174 -3.04227 -3.29516 -4.04084 -3.04227 -3.63676 -4.04084 -4.6955 -3.63676 -4.1793 -4.6955 -5.29777 -4.1793 -4.68669 -5.29777 -5.8908 -4.68669 -5.18984 -5.8908 -6.50538 -5.18984 -5.69438 -6.50538 -7.15706 -5.69438 -6.21477 -7.15706 -7.83038 -6.21477 -6.75166 -7.83038 -8.491 -6.75166 -7.31934 -8.491 -9.1005 -7.31934 -7.91341 -9.1005 -9.66207 -7.91341 -8.52675 -9.66207 -10.2059 -8.52675 -9.14314 -10.2059 -10.7544 -9.14314 -9.75838 -10.7544 -11.31 -9.75838 -10.3728 -11.31 -11.8723 -10.3728 -10.9866 -11.8723 -12.4413 -10.9866 -11.6002 -12.4413 -13.0167 -11.6002 -12.2125 -13.0167 -13.5983 -12.2125 -12.8056 -13.5983 -14.2031 -12.8056 -13.3574 -14.2031 -14.8774 -13.3574 -13.8871 -14.8774 -15.6089 -13.8871 -14.3639 -15.6089 -16.3023 -14.3639 -14.7612 -16.3023 -16.8214 -14.7612 -15.0835 -16.8214 -17.1015 -15.7228 -15.876 -18.0157 -17.7804 -15.876 -16.3039 -17.7804 -17.5525 -16.3039 -15.8715 -17.5525 -18.2128 -15.8715 -15.981 -18.2128 -18.7549 -15.981 -16.6661 -18.7549 -19.129 -16.6661 -16.874 -19.129 -19.6071 -16.874 -17.1698 -19.6071 -19.7381 -17.1698 -17.454 -19.7381 -19.8151 -17.454 -17.643 -19.8151 -19.8917 -17.643 -17.7461 -19.8917 -19.9269 -17.7461 -17.7832 -19.9269 -19.9242 -17.7832 -17.79 -19.9242 -19.918 17.1015 17.1704 16.0925 16.188 17.1704 17.1863 16.188 16.2764 16.0925 16.188 15.0835 15.2442 16.188 16.2764 15.2442 15.405 17.1863 16.6256 16.2764 16.6357 16.6256 18.0157 16.6357 16.8692 16.2764 16.6357 15.405 15.6191 16.6357 16.8692 15.6191 15.7228 5.69438 5.95457 4.96356 5.1783 5.95457 6.21477 5.1783 5.39592 4.96356 5.1783 4.23274 4.39887 5.1783 5.39592 4.39887 4.55906 6.21477 6.48322 5.39592 5.62119 6.48322 6.75166 5.62119 5.86576 5.39592 5.62119 4.55906 4.72799 5.62119 5.86576 4.72799 4.94276 6.75166 7.0355 5.86576 6.12409 7.0355 7.31934 6.12409 6.41024 5.86576 6.12409 4.94276 5.15669 6.12409 6.41024 5.15669 5.41908 7.31934 7.61637 6.41024 6.71467 7.61637 7.91341 6.71467 7.03578 6.41024 6.71467 5.41908 5.78279 6.71467 7.03578 5.78279 6.15457 7.91341 8.22008 7.03578 7.36157 8.22008 8.52675 7.36157 7.68782 7.03578 7.36157 6.15457 6.50644 7.36157 7.68782 6.50644 6.85042 8.52675 8.83495 7.68782 8.01296 8.83495 9.14314 8.01296 8.33696 7.68782 8.01296 6.85042 7.19226 8.01296 8.33696 7.19226 7.53237 9.14314 9.45076 8.33696 8.66007 9.45076 9.75838 8.66007 8.98192 8.33696 8.66007 7.53237 7.87061 8.66007 8.98192 7.87061 8.20699 9.75838 10.0656 8.98192 9.30283 10.0656 10.3728 9.30283 9.62248 8.98192 9.30283 8.20699 8.54129 9.30283 9.62248 8.54129 8.87365 10.3728 10.6797 9.62248 9.9412 10.6797 10.9866 9.9412 10.2587 9.62248 9.9412 8.87365 9.20393 9.9412 10.2587 9.20393 9.53222 10.9866 11.2934 10.2587 10.5752 11.2934 11.6002 10.5752 10.8904 10.2587 10.5752 9.53222 9.85828 10.5752 10.8904 9.85828 10.1821 11.6002 11.9063 10.8904 11.2047 11.9063 12.2125 11.2047 11.5174 10.8904 11.2047 10.1821 10.5033 11.2047 11.5174 10.5033 10.8231 12.2125 12.509 11.5174 11.8282 12.509 12.8056 11.8282 12.124 11.5174 11.8282 10.8231 11.149 11.8282 12.124 11.149 11.5121 12.8056 13.0815 12.124 12.406 13.0815 13.3574 12.406 12.6666 12.124 12.406 1