# vtk DataFile Version 3.0
#This file was generated by the deal.II library on 2016/3/9 at 8:35:55
ASCII
DATASET UNSTRUCTURED_GRID

POINTS 128 double
0 0 0
0.25 0 0
0 0.25 0
0.25 0.25 0
0.25 0 0
0.5 0 0
0.25 0.25 0
0.5 0.25 0
0 0.25 0
0.25 0.25 0
0 0.5 0
0.25 0.5 0
0.25 0.25 0
0.5 0.25 0
0.25 0.5 0
0.5 0.5 0
0.5 0 0
0.75 0 0
0.5 0.25 0
0.75 0.25 0
0.75 0 0
1 0 0
0.75 0.25 0
1 0.25 0
0.5 0.25 0
0.75 0.25 0
0.5 0.5 0
0.75 0.5 0
0.75 0.25 0
1 0.25 0
0.75 0.5 0
1 0.5 0
1 0 0
1.25 0 0
1 0.25 0
1.25 0.25 0
1.25 0 0
1.5 0 0
1.25 0.25 0
1.5 0.25 0
1 0.25 0
1.25 0.25 0
1 0.5 0
1.25 0.5 0
1.25 0.25 0
1.5 0.25 0
1.25 0.5 0
1.5 0.5 0
1.5 0 0
1.75 0 0
1.5 0.25 0
1.75 0.25 0
1.75 0 0
2 0 0
1.75 0.25 0
2 0.25 0
1.5 0.25 0
1.75 0.25 0
1.5 0.5 0
1.75 0.5 0
1.75 0.25 0
2 0.25 0
1.75 0.5 0
2 0.5 0
0 0.5 0
0.25 0.5 0
0 0.75 0
0.25 0.75 0
0.25 0.5 0
0.5 0.5 0
0.25 0.75 0
0.5 0.75 0
0 0.75 0
0.25 0.75 0
0 1 0
0.25 1 0
0.25 0.75 0
0.5 0.75 0
0.25 1 0
0.5 1 0
0.5 0.5 0
0.75 0.5 0
0.5 0.75 0
0.75 0.75 0
0.75 0.5 0
1 0.5 0
0.75 0.75 0
1 0.75 0
0.5 0.75 0
0.75 0.75 0
0.5 1 0
0.75 1 0
0.75 0.75 0
1 0.75 0
0.75 1 0
1 1 0
1 0.5 0
1.25 0.5 0
1 0.75 0
1.25 0.75 0
1.25 0.5 0
1.5 0.5 0
1.25 0.75 0
1.5 0.75 0
1 0.75 0
1.25 0.75 0
1 1 0
1.25 1 0
1.25 0.75 0
1.5 0.75 0
1.25 1 0
1.5 1 0
1.5 0.5 0
1.75 0.5 0
1.5 0.75 0
1.75 0.75 0
1.75 0.5 0
2 0.5 0
1.75 0.75 0
2 0.75 0
1.5 0.75 0
1.75 0.75 0
1.5 1 0
1.75 1 0
1.75 0.75 0
2 0.75 0
1.75 1 0
2 1 0

CELLS 32 160
4	0	1	3	2
4	4	5	7	6
4	8	9	11	10
4	12	13	15	14
4	16	17	19	18
4	20	21	23	22
4	24	25	27	26
4	28	29	31	30
4	32	33	35	34
4	36	37	39	38
4	40	41	43	42
4	44	45	47	46
4	48	49	51	50
4	52	53	55	54
4	56	57	59	58
4	60	61	63	62
4	64	65	67	66
4	68	69	71	70
4	72	73	75	74
4	76	77	79	78
4	80	81	83	82
4	84	85	87	86
4	88	89	91	90
4	92	93	95	94
4	96	97	99	98
4	100	101	103	102
4	104	105	107	106
4	108	109	111	110
4	112	113	115	114
4	116	117	119	118
4	120	121	123	122
4	124	125	127	126

CELL_TYPES 32
 9 9 9 9 9 9 9 9 9 9 9 9 9 9 9 9 9 9 9 9 9 9 9 9 9 9 9 9 9 9 9 9
POINT_DATA 128
SCALARS x_displacement double 1
LOOKUP_TABLE default
0 14.1334 0 5.46838 14.1334 28.5873 5.46838 12.3761 0 5.46838 0 8.85557e-12 5.46838 12.3761 8.85557e-12 3.24891e-11 28.5873 46.5568 12.3761 20.9192 46.5568 65.3753 20.9192 30.0426 12.3761 20.9192 3.24891e-11 4.47083e-11 20.9192 30.0426 4.47083e-11 4.67687e-11 65.3753 80.9623 30.0426 37.4141 80.9623 94.6161 37.4141 43.6801 30.0426 37.4141 4.67687e-11 3.55857e-11 37.4141 43.6801 3.55857e-11 -1.84376e-11 94.6161 104.429 43.6801 50.7476 104.429 107.343 50.7476 52.2751 43.6801 50.7476 -1.84376e-11 -8.23034e-11 50.7476 52.2751 -8.23034e-11 -1.28952e-10 0 8.85557e-12 0 -5.46838 8.85557e-12 3.24891e-11 -5.46838 -12.3761 0 -5.46838 0 -14.1334 -5.46838 -12.3761 -14.1334 -28.5873 3.24891e-11 4.47083e-11 -12.3761 -20.9192 4.47083e-11 4.67687e-11 -20.9192 -30.0426 -12.3761 -20.9192 -28.5873 -46.5568 -20.9192 -30.0426 -46.5568 -65.3753 4.67687e-11 3.55857e-11 -30.0426 -37.4141 3.55857e-11 -1.84376e-11 -37.4141 -43.6801 -30.0426 -37.4141 -65.3753 -80.9623 -37.4141 -43.6801 -80.9623 -94.6161 -1.84376e-11 -8.23034e-11 -43.6801 -50.7476 -8.23034e-11 -1.28952e-10 -50.7476 -52.2751 -43.6801 -50.7476 -94.6161 -104.429 -50.7476 -52.2751 -104.429 -107.343 
SCALARS y_displacement double 1
LOOKUP_TABLE default
0 9.30897 0 6.0746 9.30897 24.1046 6.0746 20.5443 0 6.0746 0 5.40007 6.0746 20.5443 5.40007 19.2622 24.1046 48.8931 20.5443 44.686 48.8931 83.9118 44.686 80.1136 20.5443 44.686 19.2622 43.3581 44.686 80.1136 43.3581 78.9317 83.9118 127.753 80.1136 124.576 127.753 181.106 124.576 177.696 80.1136 124.576 78.9317 123.499 124.576 177.696 123.499 176.653 181.106 243.258 177.696 242.284 243.258 303.781 242.284 307.386 177.696 242.284 176.653 238.951 242.284 307.386 238.951 329.596 0 5.40007 0 6.0746 5.40007 19.2622 6.0746 20.5443 0 6.0746 0 9.30897 6.0746 20.5443 9.30897 24.1046 19.2622 43.3581 20.5443 44.686 43.3581 78.9317 44.686 80.1136 20.5443 44.686 24.1046 48.8931 44.686 80.1136 48.8931 83.9118 78.9317 123.499 80.1136 124.576 123.499 176.653 124.576 177.696 80.1136 124.576 83.9118 127.753 124.576 177.696 127.753 181.106 176.653 238.951 177.696 242.284 238.951 329.596 242.284 307.386 177.696 242.284 181.106 243.258 242.284 307.386 243.258 303.781 
