# vtk DataFile Version 3.0
#This file was generated by the deal.II library on 2015/9/2 at 7:55: 6
ASCII
DATASET UNSTRUCTURED_GRID

POINTS 41912 double
0 0 0
0.05 0 0
0 0.05 0
0.05 0.05 0
0.05 0 0
0.1 0 0
0.05 0.05 0
0.1 0.05 0
0.1 0 0
0.15 0 0
0.1 0.05 0
0.15 0.05 0
0.15 0 0
0.2 0 0
0.15 0.05 0
0.2 0.05 0
0.2 0 0
0.25 0 0
0.2 0.05 0
0.25 0.05 0
0.25 0 0
0.3 0 0
0.25 0.05 0
0.3 0.05 0
0.3 0 0
0.35 0 0
0.3 0.05 0
0.35 0.05 0
0.35 0 0
0.4 0 0
0.35 0.05 0
0.4 0.05 0
0.4 0 0
0.45 0 0
0.4 0.05 0
0.45 0.05 0
0.45 0 0
0.5 0 0
0.45 0.05 0
0.5 0.05 0
0.5 0 0
0.55 0 0
0.5 0.05 0
0.55 0.05 0
0.55 0 0
0.6 0 0
0.55 0.05 0
0.6 0.05 0
0.6 0 0
0.65 0 0
0.6 0.05 0
0.65 0.05 0
0.65 0 0
0.7 0 0
0.65 0.05 0
0.7 0.05 0
0.7 0 0
0.75 0 0
0.7 0.05 0
0.75 0.05 0
0.75 0 0
0.8 0 0
0.75 0.05 0
0.8 0.05 0
0.8 0 0
0.85 0 0
0.8 0.05 0
0.85 0.05 0
0.85 0 0
0.9 0 0
0.85 0.05 0
0.9 0.05 0
0.9 0 0
0.95 0 0
0.9 0.05 0
0.95 0.05 0
0.95 0 0
1 0 0
0.95 0.05 0
1 0.05 0
1 0 0
1.05 0 0
1 0.05 0
1.05 0.05 0
1.05 0 0
1.1 0 0
1.05 0.05 0
1.1 0.05 0
1.1 0 0
1.15 0 0
1.1 0.05 0
1.15 0.05 0
1.15 0 0
1.2 0 0
1.15 0.05 0
1.2 0.05 0
1.2 0 0
1.25 0 0
1.2 0.05 0
1.25 0.05 0
1.45 0 0
1.5 0 0
1.45 0.05 0
1.5 0.05 0
1.5 0 0
1.55 0 0
1.5 0.05 0
1.55 0.05 0
1.55 0 0
1.6 0 0
1.55 0.05 0
1.6 0.05 0
1.6 0 0
1.65 0 0
1.6 0.05 0
1.65 0.05 0
1.65 0 0
1.7 0 0
1.65 0.05 0
1.7 0.05 0
1.7 0 0
1.75 0 0
1.7 0.05 0
1.75 0.05 0
1.75 0 0
1.8 0 0
1.75 0.05 0
1.8 0.05 0
1.8 0 0
1.85 0 0
1.8 0.05 0
1.85 0.05 0
1.85 0 0
1.9 0 0
1.85 0.05 0
1.9 0.05 0
1.9 0 0
1.95 0 0
1.9 0.05 0
1.95 0.05 0
1.95 0 0
2 0 0
1.95 0.05 0
2 0.05 0
0 0.05 0
0.05 0.05 0
0 0.1 0
0.05 0.1 0
0.05 0.05 0
0.1 0.05 0
0.05 0.1 0
0.1 0.1 0
0.1 0.05 0
0.15 0.05 0
0.1 0.1 0
0.15 0.1 0
0.15 0.05 0
0.2 0.05 0
0.15 0.1 0
0.2 0.1 0
0.2 0.05 0
0.25 0.05 0
0.2 0.1 0
0.25 0.1 0
0.25 0.05 0
0.3 0.05 0
0.25 0.1 0
0.3 0.1 0
0.3 0.05 0
0.35 0.05 0
0.3 0.1 0
0.35 0.1 0
1.15 0.05 0
1.2 0.05 0
1.15 0.1 0
1.2 0.1 0
1.2 0.05 0
1.25 0.05 0
1.2 0.1 0
1.25 0.1 0
1.55 0.05 0
1.6 0.05 0
1.55 0.1 0
1.6 0.1 0
1.6 0.05 0
1.65 0.05 0
1.6 0.1 0
1.65 0.1 0
1.65 0.05 0
1.7 0.05 0
1.65 0.1 0
1.7 0.1 0
1.7 0.05 0
1.75 0.05 0
1.7 0.1 0
1.75 0.1 0
1.75 0.05 0
1.8 0.05 0
1.75 0.1 0
1.8 0.1 0
1.8 0.05 0
1.85 0.05 0
1.8 0.1 0
1.85 0.1 0
1.85 0.05 0
1.9 0.05 0
1.85 0.1 0
1.9 0.1 0
1.9 0.05 0
1.95 0.05 0
1.9 0.1 0
1.95 0.1 0
1.95 0.05 0
2 0.05 0
1.95 0.1 0
2 0.1 0
0.15 0.1 0
0.2 0.1 0
0.15 0.15 0
0.2 0.15 0
0.2 0.1 0
0.25 0.1 0
0.2 0.15 0
0.25 0.15 0
0.25 0.1 0
0.3 0.1 0
0.25 0.15 0
0.3 0.15 0
0.3 0.1 0
0.35 0.1 0
0.3 0.15 0
0.35 0.15 0
1.65 0.1 0
1.7 0.1 0
1.65 0.15 0
1.7 0.15 0
1.7 0.1 0
1.75 0.1 0
1.7 0.15 0
1.75 0.15 0
1.75 0.1 0
1.8 0.1 0
1.75 0.15 0
1.8 0.15 0
1.8 0.1 0
1.85 0.1 0
1.8 0.15 0
1.85 0.15 0
1.85 0.1 0
1.9 0.1 0
1.85 0.15 0
1.9 0.15 0
1.9 0.1 0
1.95 0.1 0
1.9 0.15 0
1.95 0.15 0
1.95 0.1 0
2 0.1 0
1.95 0.15 0
2 0.15 0
0.3 0.15 0
0.35 0.15 0
0.3 0.2 0
0.35 0.2 0
1.75 0.15 0
1.8 0.15 0
1.75 0.2 0
1.8 0.2 0
1.8 0.15 0
1.85 0.15 0
1.8 0.2 0
1.85 0.2 0
1.85 0.15 0
1.9 0.15 0
1.85 0.2 0
1.9 0.2 0
1.9 0.15 0
1.95 0.15 0
1.9 0.2 0
1.95 0.2 0
1.95 0.15 0
2 0.15 0
1.95 0.2 0
2 0.2 0
0.4 0.2 0
0.45 0.2 0
0.4 0.25 0
0.45 0.25 0
0.8 0.2 0
0.85 0.2 0
0.8 0.25 0
0.85 0.25 0
0.85 0.2 0
0.9 0.2 0
0.85 0.25 0
0.9 0.25 0
0.9 0.2 0
0.95 0.2 0
0.9 0.25 0
0.95 0.25 0
0.95 0.2 0
1 0.2 0
0.95 0.25 0
1 0.25 0
1.8 0.2 0
1.85 0.2 0
1.8 0.25 0
1.85 0.25 0
1.85 0.2 0
1.9 0.2 0
1.85 0.25 0
1.9 0.25 0
1.9 0.2 0
1.95 0.2 0
1.9 0.25 0
1.95 0.25 0
1.95 0.2 0
2 0.2 0
1.95 0.25 0
2 0.25 0
0 0.25 0
0.05 0.25 0
0 0.3 0
0.05 0.3 0
0.05 0.25 0
0.1 0.25 0
0.05 0.3 0
0.1 0.3 0
0.1 0.25 0
0.15 0.25 0
0.1 0.3 0
0.15 0.3 0
0.95 0.25 0
1 0.25 0
0.95 0.3 0
1 0.3 0
1.25 0.25 0
1.3 0.25 0
1.25 0.3 0
1.3 0.3 0
1.3 0.25 0
1.35 0.25 0
1.3 0.3 0
1.35 0.3 0
1.9 0.25 0
1.95 0.25 0
1.9 0.3 0
1.95 0.3 0
1.95 0.25 0
2 0.25 0
1.95 0.3 0
2 0.3 0
0 0.3 0
0.05 0.3 0
0 0.35 0
0.05 0.35 0
0.05 0.3 0
0.1 0.3 0
0.05 0.35 0
0.1 0.35 0
0.1 0.3 0
0.15 0.3 0
0.1 0.35 0
0.15 0.35 0
0.15 0.3 0
0.2 0.3 0
0.15 0.35 0
0.2 0.35 0
0.2 0.3 0
0.25 0.3 0
0.2 0.35 0
0.25 0.35 0
0.6 0.3 0
0.65 0.3 0
0.6 0.35 0
0.65 0.35 0
1.2 0.3 0
1.25 0.3 0
1.2 0.35 0
1.25 0.35 0
1.25 0.3 0
1.3 0.3 0
1.25 0.35 0
1.3 0.35 0
1.3 0.3 0
1.35 0.3 0
1.3 0.35 0
1.35 0.35 0
1.35 0.3 0
1.4 0.3 0
1.35 0.35 0
1.4 0.35 0
0 0.35 0
0.05 0.35 0
0 0.4 0
0.05 0.4 0
0.05 0.35 0
0.1 0.35 0
0.05 0.4 0
0.1 0.4 0
0.1 0.35 0
0.15 0.35 0
0.1 0.4 0
0.15 0.4 0
0.15 0.35 0
0.2 0.35 0
0.15 0.4 0
0.2 0.4 0
0.2 0.35 0
0.25 0.35 0
0.2 0.4 0
0.25 0.4 0
0.25 0.35 0
0.3 0.35 0
0.25 0.4 0
0.3 0.4 0
0.3 0.35 0
0.35 0.35 0
0.3 0.4 0
0.35 0.4 0
0.7 0.35 0
0.75 0.35 0
0.7 0.4 0
0.75 0.4 0
1.2 0.35 0
1.25 0.35 0
1.2 0.4 0
1.25 0.4 0
1.25 0.35 0
1.3 0.35 0
1.25 0.4 0
1.3 0.4 0
1.3 0.35 0
1.35 0.35 0
1.3 0.4 0
1.35 0.4 0
1.35 0.35 0
1.4 0.35 0
1.35 0.4 0
1.4 0.4 0
1.4 0.35 0
1.45 0.35 0
1.4 0.4 0
1.45 0.4 0
1.45 0.35 0
1.5 0.35 0
1.45 0.4 0
1.5 0.4 0
0 0.4 0
0.05 0.4 0
0 0.45 0
0.05 0.45 0
0.05 0.4 0
0.1 0.4 0
0.05 0.45 0
0.1 0.45 0
0.1 0.4 0
0.15 0.4 0
0.1 0.45 0
0.15 0.45 0
0.15 0.4 0
0.2 0.4 0
0.15 0.45 0
0.2 0.45 0
0.2 0.4 0
0.25 0.4 0
0.2 0.45 0
0.25 0.45 0
0.25 0.4 0
0.3 0.4 0
0.25 0.45 0
0.3 0.45 0
0.3 0.4 0
0.35 0.4 0
0.3 0.45 0
0.35 0.45 0
0.35 0.4 0
0.4 0.4 0
0.35 0.45 0
0.4 0.45 0
0.4 0.4 0
0.45 0.4 0
0.4 0.45 0
0.45 0.45 0
0.75 0.4 0
0.8 0.4 0
0.75 0.45 0
0.8 0.45 0
0.8 0.4 0
0.85 0.4 0
0.8 0.45 0
0.85 0.45 0
0.85 0.4 0
0.9 0.4 0
0.85 0.45 0
0.9 0.45 0
1.15 0.4 0
1.2 0.4 0
1.15 0.45 0
1.2 0.45 0
1.2 0.4 0
1.25 0.4 0
1.2 0.45 0
1.25 0.45 0
1.25 0.4 0
1.3 0.4 0
1.25 0.45 0
1.3 0.45 0
1.3 0.4 0
1.35 0.4 0
1.3 0.45 0
1.35 0.45 0
1.35 0.4 0
1.4 0.4 0
1.35 0.45 0
1.4 0.45 0
1.4 0.4 0
1.45 0.4 0
1.4 0.45 0
1.45 0.45 0
1.45 0.4 0
1.5 0.4 0
1.45 0.45 0
1.5 0.45 0
1.5 0.4 0
1.55 0.4 0
1.5 0.45 0
1.55 0.45 0
1.55 0.4 0
1.6 0.4 0
1.55 0.45 0
1.6 0.45 0
0 0.45 0
0.05 0.45 0
0 0.5 0
0.05 0.5 0
0.05 0.45 0
0.1 0.45 0
0.05 0.5 0
0.1 0.5 0
0.1 0.45 0
0.15 0.45 0
0.1 0.5 0
0.15 0.5 0
0.15 0.45 0
0.2 0.45 0
0.15 0.5 0
0.2 0.5 0
0.2 0.45 0
0.25 0.45 0
0.2 0.5 0
0.25 0.5 0
0.25 0.45 0
0.3 0.45 0
0.25 0.5 0
0.3 0.5 0
0.3 0.45 0
0.35 0.45 0
0.3 0.5 0
0.35 0.5 0
0.35 0.45 0
0.4 0.45 0
0.35 0.5 0
0.4 0.5 0
0.4 0.45 0
0.45 0.45 0
0.4 0.5 0
0.45 0.5 0
0.45 0.45 0
0.5 0.45 0
0.45 0.5 0
0.5 0.5 0
0.5 0.45 0
0.55 0.45 0
0.5 0.5 0
0.55 0.5 0
0.8 0.45 0
0.85 0.45 0
0.8 0.5 0
0.85 0.5 0
0.85 0.45 0
0.9 0.45 0
0.85 0.5 0
0.9 0.5 0
0.9 0.45 0
0.95 0.45 0
0.9 0.5 0
0.95 0.5 0
0.95 0.45 0
1 0.45 0
0.95 0.5 0
1 0.5 0
1.15 0.45 0
1.2 0.45 0
1.15 0.5 0
1.2 0.5 0
1.2 0.45 0
1.25 0.45 0
1.2 0.5 0
1.25 0.5 0
1.25 0.45 0
1.3 0.45 0
1.25 0.5 0
1.3 0.5 0
1.3 0.45 0
1.35 0.45 0
1.3 0.5 0
1.35 0.5 0
1.35 0.45 0
1.4 0.45 0
1.35 0.5 0
1.4 0.5 0
1.4 0.45 0
1.45 0.45 0
1.4 0.5 0
1.45 0.5 0
1.45 0.45 0
1.5 0.45 0
1.45 0.5 0
1.5 0.5 0
1.5 0.45 0
1.55 0.45 0
1.5 0.5 0
1.55 0.5 0
1.55 0.45 0
1.6 0.45 0
1.55 0.5 0
1.6 0.5 0
1.6 0.45 0
1.65 0.45 0
1.6 0.5 0
1.65 0.5 0
1.9 0.45 0
1.95 0.45 0
1.9 0.5 0
1.95 0.5 0
0 0.5 0
0.05 0.5 0
0 0.55 0
0.05 0.55 0
0.05 0.5 0
0.1 0.5 0
0.05 0.55 0
0.1 0.55 0
0.1 0.5 0
0.15 0.5 0
0.1 0.55 0
0.15 0.55 0
0.15 0.5 0
0.2 0.5 0
0.15 0.55 0
0.2 0.55 0
0.2 0.5 0
0.25 0.5 0
0.2 0.55 0
0.25 0.55 0
0.25 0.5 0
0.3 0.5 0
0.25 0.55 0
0.3 0.55 0
0.3 0.5 0
0.35 0.5 0
0.3 0.55 0
0.35 0.55 0
0.35 0.5 0
0.4 0.5 0
0.35 0.55 0
0.4 0.55 0
0.4 0.5 0
0.45 0.5 0
0.4 0.55 0
0.45 0.55 0
0.45 0.5 0
0.5 0.5 0
0.45 0.55 0
0.5 0.55 0
0.5 0.5 0
0.55 0.5 0
0.5 0.55 0
0.55 0.55 0
0.8 0.5 0
0.85 0.5 0
0.8 0.55 0
0.85 0.55 0
0.85 0.5 0
0.9 0.5 0
0.85 0.55 0
0.9 0.55 0
0.9 0.5 0
0.95 0.5 0
0.9 0.55 0
0.95 0.55 0
0.95 0.5 0
1 0.5 0
0.95 0.55 0
1 0.55 0
1.15 0.5 0
1.2 0.5 0
1.15 0.55 0
1.2 0.55 0
1.2 0.5 0
1.25 0.5 0
1.2 0.55 0
1.25 0.55 0
1.25 0.5 0
1.3 0.5 0
1.25 0.55 0
1.3 0.55 0
1.3 0.5 0
1.35 0.5 0
1.3 0.55 0
1.35 0.55 0
1.35 0.5 0
1.4 0.5 0
1.35 0.55 0
1.4 0.55 0
1.4 0.5 0
1.45 0.5 0
1.4 0.55 0
1.45 0.55 0
1.45 0.5 0
1.5 0.5 0
1.45 0.55 0
1.5 0.55 0
1.5 0.5 0
1.55 0.5 0
1.5 0.55 0
1.55 0.55 0
1.55 0.5 0
1.6 0.5 0
1.55 0.55 0
1.6 0.55 0
1.6 0.5 0
1.65 0.5 0
1.6 0.55 0
1.65 0.55 0
1.9 0.5 0
1.95 0.5 0
1.9 0.55 0
1.95 0.55 0
0 0.55 0
0.05 0.55 0
0 0.6 0
0.05 0.6 0
0.05 0.55 0
0.1 0.55 0
0.05 0.6 0
0.1 0.6 0
0.1 0.55 0
0.15 0.55 0
0.1 0.6 0
0.15 0.6 0
0.15 0.55 0
0.2 0.55 0
0.15 0.6 0
0.2 0.6 0
0.2 0.55 0
0.25 0.55 0
0.2 0.6 0
0.25 0.6 0
0.25 0.55 0
0.3 0.55 0
0.25 0.6 0
0.3 0.6 0
0.3 0.55 0
0.35 0.55 0
0.3 0.6 0
0.35 0.6 0
0.35 0.55 0
0.4 0.55 0
0.35 0.6 0
0.4 0.6 0
0.4 0.55 0
0.45 0.55 0
0.4 0.6 0
0.45 0.6 0
0.75 0.55 0
0.8 0.55 0
0.75 0.6 0
0.8 0.6 0
0.8 0.55 0
0.85 0.55 0
0.8 0.6 0
0.85 0.6 0
0.85 0.55 0
0.9 0.55 0
0.85 0.6 0
0.9 0.6 0
1.15 0.55 0
1.2 0.55 0
1.15 0.6 0
1.2 0.6 0
1.2 0.55 0
1.25 0.55 0
1.2 0.6 0
1.25 0.6 0
1.25 0.55 0
1.3 0.55 0
1.25 0.6 0
1.3 0.6 0
1.3 0.55 0
1.35 0.55 0
1.3 0.6 0
1.35 0.6 0
1.35 0.55 0
1.4 0.55 0
1.35 0.6 0
1.4 0.6 0
1.4 0.55 0
1.45 0.55 0
1.4 0.6 0
1.45 0.6 0
1.45 0.55 0
1.5 0.55 0
1.45 0.6 0
1.5 0.6 0
1.5 0.55 0
1.55 0.55 0
1.5 0.6 0
1.55 0.6 0
1.55 0.55 0
1.6 0.55 0
1.55 0.6 0
1.6 0.6 0
0 0.6 0
0.05 0.6 0
0 0.65 0
0.05 0.65 0
0.05 0.6 0
0.1 0.6 0
0.05 0.65 0
0.1 0.65 0
0.1 0.6 0
0.15 0.6 0
0.1 0.65 0
0.15 0.65 0
0.15 0.6 0
0.2 0.6 0
0.15 0.65 0
0.2 0.65 0
0.2 0.6 0
0.25 0.6 0
0.2 0.65 0
0.25 0.65 0
0.25 0.6 0
0.3 0.6 0
0.25 0.65 0
0.3 0.65 0
0.3 0.6 0
0.35 0.6 0
0.3 0.65 0
0.35 0.65 0
0.7 0.6 0
0.75 0.6 0
0.7 0.65 0
0.75 0.65 0
1.2 0.6 0
1.25 0.6 0
1.2 0.65 0
1.25 0.65 0
1.25 0.6 0
1.3 0.6 0
1.25 0.65 0
1.3 0.65 0
1.3 0.6 0
1.35 0.6 0
1.3 0.65 0
1.35 0.65 0
1.35 0.6 0
1.4 0.6 0
1.35 0.65 0
1.4 0.65 0
1.4 0.6 0
1.45 0.6 0
1.4 0.65 0
1.45 0.65 0
1.45 0.6 0
1.5 0.6 0
1.45 0.65 0
1.5 0.65 0
0 0.65 0
0.05 0.65 0
0 0.7 0
0.05 0.7 0
0.05 0.65 0
0.1 0.65 0
0.05 0.7 0
0.1 0.7 0
0.1 0.65 0
0.15 0.65 0
0.1 0.7 0
0.15 0.7 0
0.15 0.65 0
0.2 0.65 0
0.15 0.7 0
0.2 0.7 0
0.2 0.65 0
0.25 0.65 0
0.2 0.7 0
0.25 0.7 0
0.6 0.65 0
0.65 0.65 0
0.6 0.7 0
0.65 0.7 0
1.2 0.65 0
1.25 0.65 0
1.2 0.7 0
1.25 0.7 0
1.25 0.65 0
1.3 0.65 0
1.25 0.7 0
1.3 0.7 0
1.3 0.65 0
1.35 0.65 0
1.3 0.7 0
1.35 0.7 0
[...]
POINT_DATA 41912
SCALARS x_displacement double 1
LOOKUP_TABLE default
0 1.32531 0 0.774856 1.32531 2.336 0.774856 1.59501 2.336 3.18426 1.59501 2.32262 3.18426 3.91632 2.32262 2.97124 3.91632 4.56128 2.97124 3.55492 4.56128 5.14928 3.55492 4.08789 5.14928 5.7079 4.08789 4.5896 5.7079 6.25254 4.5896 5.07932 6.25254 6.78923 5.07932 5.56255 6.78923 7.32012 5.56255 6.04557 7.32012 7.84814 6.04557 6.52886 7.84814 8.37482 6.52886 7.01092 8.37482 8.90252 7.01092 7.49137 8.90252 9.42893 7.49137 7.97419 9.42893 9.94135 7.97419 8.4599 9.94135 10.4323 8.4599 8.94552 10.4323 10.9085 8.94552 9.43627 10.9085 11.3808 9.43627 9.92802 11.3808 11.8585 9.92802 10.4144 11.8585 12.3523 10.4144 10.8981 12.3523 12.8672 10.8981 11.3737 12.8672 13.4134 11.3737 11.8331 13.4134 13.996 11.8331 12.2859 13.996 14.5629 12.2859 12.727 14.5629 14.9994 12.727 13.1199 16.5604 16.9461 14.2546 14.6417 16.9461 17.2632 14.6417 15.009 17.2632 17.5338 15.009 15.3225 17.5338 17.7565 15.3225 15.5746 17.7565 17.9167 15.5746 15.7641 17.9167 18.0162 15.7641 15.9069 18.0162 18.067 15.9069 16.0056 18.067 18.08 16.0056 16.0653 18.08 18.07 16.0653 16.0939 18.07 18.0558 16.0939 16.1029 18.0558 18.0508 16.1029 16.1056 0 0.774856 0 0.529545 0.774856 1.59501 0.529545 1.08525 1.59501 2.32262 1.08525 1.645 2.32262 2.97124 1.645 2.17229 2.97124 3.55492 2.17229 2.66325 3.55492 4.08789 2.66325 3.11156 4.08789 4.5896 3.11156 3.51221 12.2859 12.727 10.6668 11.0241 12.727 13.1199 11.0241 11.3483 15.009 15.3225 12.9354 13.2487 15.3225 15.5746 13.2487 13.5044 15.5746 15.7641 13.5044 13.7251 15.7641 15.9069 13.7251 13.9009 15.9069 16.0056 13.9009 14.0323 16.0056 16.0653 14.0323 14.1184 16.0653 16.0939 14.1184 14.1631 16.0939 16.1029 14.1631 14.1773 16.1029 16.1056 14.1773 14.1816 1.645 2.17229 1.04496 1.46033 2.17229 2.66325 1.46033 1.86484 2.66325 3.11156 1.86484 2.23765 3.11156 3.51221 2.23765 2.56134 13.5044 13.7251 11.5349 11.7944 13.7251 13.9009 11.7944 11.9954 13.9009 14.0323 11.9954 12.1499 14.0323 14.1184 12.1499 12.2548 14.1184 14.1631 12.2548 12.3025 14.1631 14.1773 12.3025 12.315 14.1773 14.1816 12.315 12.3144 2.23765 2.56134 1.45276 1.77306 11.9954 12.1499 10.1882 10.3719 12.1499 12.2548 10.3719 10.4674 12.2548 12.3025 10.4674 10.5276 12.3025 12.315 10.5276 10.5409 12.315 12.3144 10.5409 10.5289 2.08449 2.38851 1.34741 1.65843 5.10822 5.78942 5.1883 4.75547 5.78942 6.20556 4.75547 5.14162 6.20556 6.58731 5.14162 5.53433 6.58731 7.00363 5.53433 5.96041 10.3719 10.4674 8.57434 8.75763 10.4674 10.5276 8.75763 8.85382 10.5276 10.5409 8.85382 8.87214 10.5409 10.5289 8.87214 8.8421 0 -0.361581 0 -0.230689 -0.361581 -1.55027 -0.230689 -0.199172 -1.55027 -0.27446 -0.199172 -0.405903 5.53433 5.96041 4.47393 4.83548 5.85417 5.61313 4.91652 4.85423 5.61313 6.2938 4.85423 4.93975 8.85382 8.87214 7.28962 7.31724 8.87214 8.8421 7.31724 7.24327 0 -0.230689 0 -0.028873 -0.230689 -0.199172 -0.028873 -0.0945094 -0.199172 -0.405903 -0.0945094 -0.121333 -0.405903 -0.22891 -0.121333 -0.156781 -0.22891 -0.159579 -0.156781 -0.105898 1.8588 2.16715 1.13506 1.43105 4.92729 4.91652 3.50378 3.60936 4.91652 4.85423 3.60936 3.64245 4.85423 4.93975 3.64245 3.65026 4.93975 5.02077 3.65026 3.63745 0 -0.028873 0 -0.0105054 -0.028873 -0.0945094 -0.0105054 -0.021946 -0.0945094 -0.121333 -0.021946 -0.0535862 -0.121333 -0.156781 -0.0535862 -0.0741107 -0.156781 -0.105898 -0.0741107 -0.0904336 -0.105898 -0.0752746 -0.0904336 -0.0949858 -0.0752746 -0.0453756 -0.0949858 -0.112016 1.71726 2.0094 0.976478 1.22425 3.50378 3.60936 2.31389 2.29827 3.60936 3.64245 2.29827 2.37364 3.64245 3.65026 2.37364 2.39422 3.65026 3.63745 2.39422 2.38792 3.63745 3.59791 2.38792 2.3446 3.59791 3.26521 2.3446 2.46315 0 -0.0105054 0 -0.0011581 -0.0105054 -0.021946 -0.0011581 -0.0067901 -0.021946 -0.0535862 -0.0067901 -0.0182038 -0.0535862 -0.0741107 -0.0182038 -0.0344427 -0.0741107 -0.0904336 -0.0344427 -0.0480511 -0.0904336 -0.0949858 -0.0480511 -0.0626762 -0.0949858 -0.112016 -0.0626762 -0.089978 -0.112016 -0.17391 -0.089978 -0.156896 -0.17391 -0.499879 -0.156896 -0.178131 1.22425 1.47705 0.505396 0.691196 1.47705 1.71853 0.691196 0.837254 1.71853 1.93364 0.837254 0.941416 2.24982 2.31389 1.00976 1.1204 2.31389 2.29827 1.1204 1.14627 2.29827 2.37364 1.14627 1.16288 2.37364 2.39422 1.16288 1.18197 2.39422 2.38792 1.18197 1.18316 2.38792 2.3446 1.18316 1.20279 2.3446 2.46315 1.20279 1.1975 2.46315 2.40982 1.1975 1.16722 2.40982 2.37284 1.16722 1.04643 0 -0.0011581 0 -1.23029e-11 -0.0011581 -0.0067901 -1.23029e-11 -2.3335e-11 -0.0067901 -0.0182038 -2.3335e-11 -3.19298e-11 -0.0182038 -0.0344427 -3.19298e-11 -3.98606e-11 -0.0344427 -0.0480511 -3.98606e-11 -4.66874e-11 -0.0480511 -0.0626762 -4.66874e-11 -4.95562e-11 -0.0626762 -0.089978 -4.95562e-11 -4.78483e-11 -0.089978 -0.156896 -4.78483e-11 -4.39469e-11 -0.156896 -0.178131 -4.39469e-11 -3.49973e-11 -0.178131 -0.237264 -3.49973e-11 -2.80172e-11 -0.237264 -0.268383 -2.80172e-11 -2.4272e-11 0.691196 0.837254 -1.23661e-12 -1.2175e-12 0.837254 0.941416 -1.2175e-12 -1.17737e-12 0.941416 0.989427 -1.17737e-12 -1.28614e-12 0.989427 0.972904 -1.28614e-12 -1.53734e-12 1.00976 1.1204 1.44957e-10 -4.4358e-10 1.1204 1.14627 -4.4358e-10 -4.64794e-10 1.14627 1.16288 -4.64794e-10 -1.48359e-10 1.16288 1.18197 -1.48359e-10 3.06936e-10 1.18197 1.18316 3.06936e-10 4.71048e-10 1.18316 1.20279 4.71048e-10 6.50018e-10 1.20279 1.1975 6.50018e-10 -1.85656e-09 1.1975 1.16722 -1.85656e-09 -3.39616e-09 1.16722 1.04643 -3.39616e-09 -3.30846e-09 1.04643 1.1149 -3.30846e-09 -2.06941e-09 1.90576 2.11547 4.88556e-12 4.64711e-12 0 -1.23029e-11 0 0.0011581 -1.23029e-11 -2.3335e-11 0.0011581 0.0067901 -2.3335e-11 -3.19298e-11 0.0067901 0.0182038 -3.19298e-11 -3.98606e-11 0.0182038 0.0344427 -3.98606e-11 -4.66874e-11 0.0344427 0.0480511 -4.66874e-11 -4.95562e-11 0.0480511 0.0626762 -4.95562e-11 -4.78483e-11 0.0626762 0.089978 -4.78483e-11 -4.39469e-11 0.089978 0.156896 -4.39469e-11 -3.49973e-11 0.156896 0.178131 -3.49973e-11 -2.80172e-11 0.178131 0.237264 -2.80172e-11 -2.4272e-11 0.237264 0.268383 -1.23661e-12 -1.2175e-12 -0.691196 -0.837254 -1.2175e-12 -1.17737e-12 -0.837254 -0.941416 -1.17737e-12 -1.28614e-12 -0.941416 -0.989427 -1.28614e-12 -1.53734e-12 -0.989427 -0.972904 1.44957e-10 -4.4358e-10 -1.00976 -1.1204 -4.4358e-10 -4.64794e-10 -1.1204 -1.14627 -4.64794e-10 -1.48359e-10 -1.14627 -1.16288 -1.48359e-10 3.06936e-10 -1.16288 -1.18197 3.06936e-10 4.71048e-10 -1.18197 -1.18316 4.71048e-10 6.50018e-10 -1.18316 -1.20279 6.50018e-10 -1.85656e-09 -1.20279 -1.1975 -1.85656e-09 -3.39616e-09 -1.1975 -1.16722 -3.39616e-09 -3.30846e-09 -1.16722 -1.04643 -3.30846e-09 -2.06941e-09 -1.04643 -1.1149 4.88556e-12 4.64711e-12 -1.90576 -2.11547 0 0.0011581 0 0.0105054 0.0011581 0.0067901 0.0105054 0.021946 0.0067901 0.0182038 0.021946 0.0535862 0.0182038 0.0344427 0.0535862 0.0741107 0.0344427 0.0480511 0.0741107 0.0904336 0.0480511 0.0626762 0.0904336 0.0949858 0.0626762 0.089978 0.0949858 0.112016 0.089978 0.156896 0.112016 0.17391 0.156896 0.178131 0.17391 0.499879 -0.505396 -0.691196 -1.22425 -1.47705 -0.691196 -0.837254 -1.47705 -1.71853 -0.837254 -0.941416 -1.71853 -1.93364 -1.00976 -1.1204 -2.24982 -2.31389 -1.1204 -1.14627 -2.31389 -2.29827 -1.14627 -1.16288 -2.29827 -2.37364 -1.16288 -1.18197 -2.37364 -2.39422 -1.18197 -1.18316 -2.39422 -2.38792 -1.18316 -1.20279 -2.38792 -2.3446 -1.20279 -1.1975 -2.3446 -2.46315 -1.1975 -1.16722 -2.46315 -2.40982 -1.16722 -1.04643 -2.40982 -2.37284 0 0.0105054 0 0.028873 0.0105054 0.021946 0.028873 0.0945094 0.021946 0.0535862 0.0945094 0.121333 0.0535862 0.0741107 0.121333 0.156781 0.0741107 0.0904336 0.156781 0.105898 0.0904336 0.0949858 0.105898 0.0752746 0.0949858 0.112016 0.0752746 0.0453756 -0.976478 -1.22425 -1.71726 -2.0094 -2.31389 -2.29827 -3.50378 -3.60936 -2.29827 -2.37364 -3.60936 -3.64245 -2.37364 -2.39422 -3.64245 -3.65026 -2.39422 -2.38792 -3.65026 -3.63745 -2.38792 -2.3446 -3.63745 -3.59791 -2.3446 -2.46315 -3.59791 -3.26521 0 0.028873 0 0.230689 0.028873 0.0945094 0.230689 0.199172 0.0945094 0.121333 0.199172 0.405903 0.121333 0.156781 0.405903 0.22891 0.156781 0.105898 0.22891 0.159579 -1.13506 -1.43105 -1.8588 -2.16715 -3.50378 -3.60936 -4.92729 -4.91652 -3.60936 -3.64245 -4.91652 -4.85423 -3.64245 -3.65026 -4.85423 -4.93975 -3.65026 -3.63745 -4.93975 -5.02077 0 0.230689 0 0.361581 0.230689 0.199172 0.361581 1.55027 0.199172 0.405903 1.55027 0.27446 -4.47393 -4.83548 -5.53433 -5.96041 -4.91652 -4.85423 -5.85417 -5.61313 -4.85423 -4.93975 -5.61313 -6.2938 -7.28962 -7.31724 -8.85382 -8.87214 -7.31724 -7.24327 -8.87214 -8.8421 -1.34741 -1.65843 -2.08449 -2.38851 -5.1883 -4.75547 -5.10822 -5.78942 -4.75547 -5.14162 -5.78942 -6.20556 -5.14162 -5.53433 -6.20556 -6.58731 -5.53433 -5.96041 -6.58731 -7.00363 -8.57434 -8.75763 -10.3719 -10.4674 -8.75763 -8.85382 -10.4674 -10.5276 -8.85382 -8.87214 -10.5276 -10.5409 -8.87214 -8.8421 -10.5409 -10.5289 -1.45276 -1.77306 -2.23765 -2.56134 -10.1882 -10.3719 -11.9954 -12.1499 -10.3719 -10.4674 -12.1499 -12.2548 -10.4674 -10.5276 -12.2548 -12.3025 -10.5276 -10.5409 -12.3025 -12.315 -10.5409 -10.5289 -12.315 -12.3144 -1.04496 -1.46033 -1.645 -2.17229 -1.46033 -1.86484 -2.17229 -2.66325 -1.86484 -2.23765 -2.66325 -3.11156 -2.23765 -2.56134 -3.11156 -3.51221 -11.5349 -11.7944 -13.5044 -13.7251 -11.7944 -11.9954 -13.7251 -13.9009 -11.9954 -12.1499 -13.9009 -14.0323 -12.1499 -12.2548 -14.0323 -14.1184 -12.2548 -12.3025 -14.1184 -14.1631 -12.3025 -12.315 -14.1631 -14.1773 -12.315 -12.3144 -14.1773 -14.1816 0 -0.529545 0 -0.774856 -0.529545 -1.08525 -0.774856 -1.59501 -1.08525 -1.645 -1.59501 -2.32262 -1.645 -2.17229 -2.32262 -2.97124 -2.17229 -2.66325 -2.97124 -3.55492 -2.66325 -3.11156 -3.55492 -4.08789 -3.11156 -3.51221 -4.08789 -4.5896 -10.6668 -11.0241 -12.2859 -12.727 -11.0241 -11.3483 -12.727 -13.1199 -12.9354 -13.2487 -15.009 -15.3225 -13.2487 -13.5044 -15.3225 -15.5746 -13.5044 -13.7251 -15.5746 -15.7641 -13.7251 -13.9009 -15.7641 -15.9069 -13.9009 -14.0323 -15.9069 -16.0056 -14.0323 -14.1184 -16.0056 -16.0653 -14.1184 -14.1631 -16.0653 -16.0939 -14.1631 -14.1773 -16.0939 -16.1029 -14.1773 -14.1816 -16.1029 -16.1056 0 -0.774856 0 -1.32531 -0.774856 -1.59501 -1.32531 -2.336 -1.59501 -2.32262 -2.336 -3.18426 -2.32262 -2.97124 -3.18426 -3.91632 -2.97124 -3.55492 -3.91632 -4.56128 -3.55492 -4.08789 -4.56128 -5.14928 -4.08789 -4.5896 -5.14928 -5.7079 -4.5896 -5.07932 -5.7079 -6.25254 -5.07932 -5.56255 -6.25254 -6.78923 -5.56255 -6.04557 -6.78923 -7.32012 -6.04557 -6.52886 -7.32012 -7.84814 -6.52886 -7.01092 -7.84814 -8.37482 -7.01092 -7.49137 -8.37482 -8.90252 -7.49137 -7.97419 -8.90252 -9.42893 -7.97419 -8.4599 -9.42893 -9.94135 -8.4599 -8.94552 -9.94135 -10.4323 -8.94552 -9.43627 -10.4323 -10.9085 -9.43627 -9.92802 -10.9085 -11.3808 -9.92802 -10.4144 -11.3808 -11.8585 -10.4144 -10.8981 -11.8585 -12.3523 -10.8981 -11.3737 -12.3523 -12.8672 -11.3737 -11.8331 -12.8672 -13.4134 -11.8331 -12.2859 -13.4134 -13.996 -12.2859 -12.727 -13.996 -14.5629 -12.727 -13.1199 -14.5629 -14.9994 -14.2546 -14.6417 -16.5604 -16.9461 -14.6417 -15.009 -16.9461 -17.2632 -15.009 -15.3225 -17.2632 -17.5338 -15.3225 -15.5746 -17.5338 -17.7565 -15.5746 -15.7641 -17.7565 -17.9167 -15.7641 -15.9069 -17.9167 -18.0162 -15.9069 -16.0056 -18.0162 -18.067 -16.0056 -16.0653 -18.067 -18.08 -16.0653 -16.0939 -18.08 -18.07 -16.0939 -16.1029 -18.07 -18.0558 -16.1029 -16.1056 -18.0558 -18.0508 15.8817 16.1299 14.7508 14.9926 5.56255 5.80406 4.94984 5.17905 5.80406 6.04557 5.17905 5.40911 4.94984 5.17905 4.33585 4.55399 5.17905 5.40911 4.55399 4.77247 6.04557 6.28722 5.40911 5.63939 6.28722 6.52886 5.63939 5.86976 5.40911 5.63939 4.77247 4.99128 5.63939 5.86976 4.99128 5.21048 6.52886 6.76989 5.86976 6.10014 6.76989 7.01092 6.10014 6.33014 5.86976 6.10014 5.21048 5.43009 6.10014 6.33014 5.43009 5.65018 7.01092 7.25115 6.33014 6.55926 7.25115 7.49137 6.55926 6.78735 6.33014 6.55926 5.65018 5.87039 6.55926 6.78735 5.87039 6.08863 7.49137 7.73278 6.78735 7.01629 7.73278 7.97419 7.01629 7.24657 7.97419 8.21705 7.24657 7.48041 8.21705 8.4599 7.48041 7.71846 8.4599 8.70271 7.71846 7.95744 8.70271 8.94552 7.95744 8.20197 8.94552 9.19089 8.20197 8.45048 9.19089 9.43627 8.45048 8.70093 9.43627 9.68214 8.70093 8.95175 9.68214 9.92802 8.95175 9.2022 9.92802 10.1712 9.2022 9.45071 10.1712 10.4144 9.45071 9.69404 10.4144 10.6562 9.69404 9.93453 10.6562 10.8981 9.93453 10.1719 10.8981 11.1359 10.1719 10.4046 11.1359 11.3737 10.4046 10.6285 11.3737 11.6034 10.6285 10.844 11.6034 11.8331 10.844 11.0507 10.844 11.0507 10.1016 10.3017 14.2546 14.4482 13.2963 13.252 14.4482 14.6417 13.252 13.5596 0 0.264772 0 0.203704 0.264772 0.529545 0.203704 0.416399 0.529545 0.807395 0.416399 0.636418 0.807395 1.08525 0.636418 0.868082 0.636418 0.868082 0.453535 0.644224 11.3483 11.4842 10.4346 10.5472 11.4842 11.6081 10.5472 10.6626 12.9354 13.092 11.9302 12.2106 13.092 13.2487 12.2106 12.1935 12.2106 12.1935 11.2143 11.2242 0 -0.0829893 0 -0.18193 1.04496 1.25265 0.747912 0.931986 1.25265 1.46033 0.931986 1.11786 3.90549 4.08789 3.45913 3.42861 4.08789 4.28478 3.42861 3.62921 8.44009 8.79259 8.23538 7.6462 8.23538 7.6462 7.32496 7.82172 9.96681 10.1016 9.02198 9.16654 10.1016 10.2357 9.16654 9.30585 9.84823 9.98225 8.92971 9.06408 11.4093 11.5349 10.4727 10.5752 -0.182563 0.178429 -1.55027 -0.912363 0.178429 -0.000891165 -0.912363 -0.27446 1.29027 1.45276 0.920035 1.08117 2.32665 2.48039 1.96657 2.11948 3.63945 3.79533 3.18948 3.3687 3.79533 4.20268 3.3687 3.42303 7.09486 6.95955 5.62027 5.85417 6.68337 7.22887 5.61313 5.95346 7.22887 7.1228 5.95346 6.2938 10.1082 10.1882 9.21566 9.41524 -0.301895 -0.0162327 -0.22891 -0.194244 -0.0162327 0.0862767 -0.194244 -0.159579 1.19099 1.34741 0.827533 0.983212 2.22133 2.37558 1.8588 2.01297 2.37558 2.53795 2.01297 2.16715 3.68136 5.1883 3.51929 3.07312 5.1883 4.97189 3.07312 3.81443 4.97189 4.75547 3.81443 4.07447 5.96041 6.16359 5.39795 5.57822 5.39795 5.57822 4.83548 4.97969 5.64865 5.64604 4.97206 4.9692 5.80653 5.83432 5.02077 5.08823 7.2355 7.37131 6.32078 6.46077 8.57434 8.66599 7.69856 7.85397 8.66599 8.75763 7.85397 7.94547 -0.0250531 0.0176713 -0.0752746 -0.0603251 0.0176713 0.0156775 -0.0603251 -0.0453756 1.08732 1.24234 0.725246 0.882207 2.10011 2.25343 1.71726 1.86333 2.25343 2.4101 1.86333 2.0094 2.4101 2.57024 2.0094 2.16054 4.19315 4.47393 3.55017 3.90395 4.98779 4.92729 4.00511 4.21553 4.00511 4.21553 3.63562 3.50378 4.5627 4.44402 3.26521 3.70699 5.96491 6.10143 5.06029 5.19763 5.74482 5.88276 4.8389 4.9731 7.28962 7.30343 6.55794 6.58034 7.30343 7.31724 6.58034 6.58392 -0.107415 -0.0925 -0.17391 -0.336895 -0.0925 0.0292917 -0.336895 -0.499879 0.0292917 -0.0197479 -0.499879 -0.346205 0.983295 1.13506 0.624876 0.779915 2.16971 2.3051 1.71853 1.82609 2.3051 2.43811 1.82609 1.93364 3.64083 3.6359 2.96137 2.95748 2.96137 2.95748 2.27028 2.2772 3.07887 3.16438 2.40982 2.39133 3.16438 3.16201 2.39133 2.37284 4.46355 4.60349 3.53456 3.66751 5.79831 5.75464 4.9509 4.93688 -0.128375 -0.0667616 -0.268383 -0.309343 0.849806 0.976478 0.508443 0.632342 2.29646 2.24982 1.46288 1.62979 1.46288 1.62979 0.968568 1.00976 1.54922 1.78108 1.1149 1.13635 3.15989 3.28212 2.26686 2.38286 -0.12339 -0.148737 2.26692e-13 6.60569e-12 0.972904 0.971436 0.486452 0.444037 0.486452 0.444037 -1.53734e-12 -1.70026e-12 0.525629 0.52723 1.68189e-10 6.97338e-11 2.26692e-13 6.60569e-12 0.12339 0.148737 -1.53734e-12 -1.70026e-12 -0.486452 -0.444037 -0.486452 -0.444037 -0.972904 -0.971436 1.68189e-10 6.97338e-11 -0.525629 -0.52723 0.268383 0.309343 0.128375 0.0667616 -0.508443 -0.632342 -0.849806 -0.976478 -0.968568 -1.00976 -1.46288 -1.62979 -1.46288 -1.62979 -2.29646 -2.24982 -1.1149 -1.13635 -1.54922 -1.78108 -2.26686 -2.38286 -3.15989 -3.28212 0.17391 0.336895 0.107415 0.0925 0.336895 0.499879 0.0925 -0.0292917 0.499879 0.346205 -0.0292917 0.0197479 -0.624876 -0.779915 -0.983295 -1.13506 -1.71853 -1.82609 -2.16971 -2.3051 -1.82609 -1.93364 -2.3051 -2.43811 -2.27028 -2.2772 -2.96137 -2.95748 -2.96137 -2.95748 -3.64083 -3.6359 -2.40982 -2.39133 -3.07887 -3.16438 -2.39133 -2.37284 -3.16438 -3.16201 -3.53456 -3.66751 -4.46355 -4.60349 -4.9509 -4.93688 -5.79831 -5.75464 0.0752746 0.0603251 0.0250531 -0.0176713 0.0603251 0.0453756 -0.0176713 -0.0156775 -0.725246 -0.882207 -1.08732 -1.24234 -1.71726 -1.86333 -2.10011 -2.25343 -1.86333 -2.0094 -2.25343 -2.4101 -2.0094 -2.16054 -2.4101 -2.57024 -3.55017 -3.90395 -4.19315 -4.47393 -3.63562 -3.50378 -4.00511 -4.21553 -4.00511 -4.21553 -4.98779 -4.92729 -3.26521 -3.70699 -4.5627 -4.44402 -5.06029 -5.19763 -5.96491 -6.10143 -4.8389 -4.9731 -5.74482 -5.88276 -6.55794 -6.58034 -7.28962 -7.30343 -6.58034 -6.58392 -7.30343 -7.31724 0.22891 0.194244 0.301895 0.0162327 0.194244 0.159579 0.0162327 -0.0862767 -0.827533 -0.983212 -1.19099 -1.34741 -1.8588 -2.01297 -2.22133 -2.37558 -2.01297 -2.16715 -2.37558 -2.53795 -3.51929 -3.07312 -3.68136 -5.1883 -3.07312 -3.81443 -5.1883 -4.97189 -3.81443 -4.07447 -4.97189 -4.75547 -4.83548 -4.97969 -5.39795 -5.57822 -5.39795 -5.57822 -5.96041 -6.16359 -4.97206 -4.9692 -5.64865 -5.64604 -5.02077 -5.08823 -5.80653 -5.83432 -6.32078 -6.46077 -7.2355 -7.37131 -7.69856 -7.85397 -8.57434 -8.66599 -7.85397 -7.94547 -8.66599 -8.75763 1.55027 0.912363 0.182563 -0.178429 0.912363 0.27446 -0.178429 0.000891165 -0.920035 -1.08117 -1.29027 -1.45276 -1.96657 -2.11948 -2.32665 -2.48039 -3.18948 -3.3687 -3.63945 -3.79533 -3.3687 -3.42303 -3.79533 -4.20268 -5.62027 -5.85417 -7.09486 -6.95955 -5.61313 -5.95346 -6.68337 -7.22887 -5.95346 -6.2938 -7.22887 -7.1228 -9.21566 -9.41524 -10.1082 -10.1882 0 0.18193 0 0.0829893 -0.747912 -0.931986 -1.04496 -1.25265 -0.931986 -1.11786 -1.25265 -1.46033 -3.45913 -3.42861 -3.90549 -4.08789 -3.42861 -3.62921 -4.08789 -4.28478 -7.32496 -7.82172 -8.23538 -7.6462 -8.23538 -7.6462 -8.44009 -8.79259 -9.02198 -9.16654 -9.96681 -10.1016 -9.16654 -9.30585 -10.1016 -10.2357 -8.92971 -9.06408 -9.84823 -9.98225 -10.4727 -10.5752 -11.4093 -11.5349 0 -0.203704 0 -0.264772 -0.203704 -0.416399 -0.264772 -0.529545 -0.453535 -0.644224 -0.636418 -0.868082 -0.416399 -0.636418 -0.529545 -0.807395 -0.636418 -0.868082 -0.807395 -1.08525 -10.4346 -10.5472 -11.3483 -11.4842 -10.5472 -10.6626 -11.4842 -11.6081 -11.2143 -11.2242 -12.2106 -12.1935 -11.9302 -12.2106 -12.9354 -13.092 -12.2106 -12.1935 -13.092 -13.2487 -4.33585 -4.55399 -4.94984 -5.17905 -4.55399 -4.77247 -5.17905 -5.40911 -4.94984 -5.17905 -5.56255 -5.80406 -5.17905 -5.40911 -5.80406 -6.04557 -4.77247 -4.99128 -5.40911 -5.63939 -4.99128 -5.21048 -5.63939 -5.86976 -5.40911 -5.63939 -6.04557 -6.28722 -5.63939 -5.86976 -6.28722 -6.52886 -5.21048 -5.43009 -5.86976 -6.10014 -5.43009 -5.65018 -6.10014 -6.33014 -5.86976 -6.10014 -6.52886 -6.76989 -6.10014 -6.33014 -6.76989 -7.01092 -5.65018 -5.87039 -6.33014 -6.55926 -5.87039 -6.08863 -6.55926 -6.78735 -6.33014 -6.55926 -7.01092 -7.25115 -6.55926 -6.78735 -7.25115 -7.49137 -6.78735 -7.01629 -7.49137 -7.73278 -7.01629 -7.24657 -7.73278 -7.97419 -7.24657 -7.48041 -7.97419 -8.21705 -7.48041 -7.71846 -8.21705 -8.4599 -7.71846 -7.95744 -8.4599 -8.70271 -7.95744 -8.20197 -8.70271 -8.94552 -8.20197 -8.45048 -8.94552 -9.19089 -8.45048 -8.70093 -9.19089 -9.43627 -8.70093 -8.95175 -9.43627 -9.68214 -8.95175 -9.2022 -9.68214 -9.92802 -9.2022 -9.45071 -9.92802 -10.1712 -9.45071 -9.69404 -10.1712 -10.4144 -9.69404 -9.93453 -10.4144 -10.6562 -9.93453 -10.1719 -10.6562 -10.8981 -10.1719 -10.4046 -10.8981 -11.1359 -10.4046 -10.6285 -11.1359 -11.3737 -10.1016 -10.3017 -10.844 -11.0507 -10.6285 -10.844 -11.3737 -11.6034 -10.844 -11.0507 -11.6034 -11.8331 -13.2963 -13.252 -14.2546 -14.4482 -13.252 -13.5596 -14.4482 -14.6417 -14.7508 -14.9926 -15.8817 -16.1299 14.9994 15.136 14.0596 14.2099 14.0596 14.2099 13.1199 13.2974 16.1299 16.3521 14.9926 15.1972 16.3521 16.5604 15.1972 15.4075 15.1972 15.4075 14.1092 14.2546 5.07932 5.32094 4.49693 4.72271 5.32094 5.56255 4.72271 4.94984 4.49693 4.72271 3.91045 4.11964 4.72271 4.94984 4.11964 4.33585 11.8331 12.0595 11.0507 11.2591 12.0595 12.2859 11.2591 11.4764 11.0507 11.2591 10.301