# vtk DataFile Version 3.0
#This file was generated by the deal.II library on 2015/9/1 at 10:19:27
ASCII
DATASET UNSTRUCTURED_GRID

POINTS 6560 double
0 0 0
0.05 0 0
0 0.05 0
0.05 0.05 0
0.05 0 0
0.1 0 0
0.05 0.05 0
0.1 0.05 0
0.1 0 0
0.15 0 0
0.1 0.05 0
0.15 0.05 0
0.15 0 0
0.2 0 0
0.15 0.05 0
0.2 0.05 0
0.2 0 0
0.25 0 0
0.2 0.05 0
0.25 0.05 0
0.25 0 0
0.3 0 0
0.25 0.05 0
0.3 0.05 0
0.3 0 0
0.35 0 0
0.3 0.05 0
0.35 0.05 0
0.35 0 0
0.4 0 0
0.35 0.05 0
0.4 0.05 0
0.4 0 0
0.45 0 0
0.4 0.05 0
0.45 0.05 0
0.45 0 0
0.5 0 0
0.45 0.05 0
0.5 0.05 0
0.5 0 0
0.55 0 0
0.5 0.05 0
0.55 0.05 0
0.55 0 0
0.6 0 0
0.55 0.05 0
0.6 0.05 0
0.6 0 0
0.65 0 0
0.6 0.05 0
0.65 0.05 0
0.65 0 0
0.7 0 0
0.65 0.05 0
0.7 0.05 0
0.7 0 0
0.75 0 0
0.7 0.05 0
0.75 0.05 0
0.75 0 0
0.8 0 0
0.75 0.05 0
0.8 0.05 0
0.8 0 0
0.85 0 0
0.8 0.05 0
0.85 0.05 0
0.85 0 0
0.9 0 0
0.85 0.05 0
0.9 0.05 0
0.9 0 0
0.95 0 0
0.9 0.05 0
0.95 0.05 0
0.95 0 0
1 0 0
0.95 0.05 0
1 0.05 0
1 0 0
1.05 0 0
1 0.05 0
1.05 0.05 0
1.05 0 0
1.1 0 0
1.05 0.05 0
1.1 0.05 0
1.1 0 0
1.15 0 0
1.1 0.05 0
1.15 0.05 0
1.15 0 0
1.2 0 0
1.15 0.05 0
1.2 0.05 0
1.2 0 0
1.25 0 0
1.2 0.05 0
1.25 0.05 0
1.25 0 0
1.3 0 0
1.25 0.05 0
1.3 0.05 0
1.3 0 0
1.35 0 0
1.3 0.05 0
1.35 0.05 0
1.45 0 0
1.5 0 0
1.45 0.05 0
1.5 0.05 0
1.5 0 0
1.55 0 0
1.5 0.05 0
1.55 0.05 0
1.55 0 0
1.6 0 0
1.55 0.05 0
1.6 0.05 0
1.6 0 0
1.65 0 0
1.6 0.05 0
1.65 0.05 0
1.65 0 0
1.7 0 0
1.65 0.05 0
1.7 0.05 0
1.7 0 0
1.75 0 0
1.7 0.05 0
1.75 0.05 0
1.75 0 0
1.8 0 0
1.75 0.05 0
1.8 0.05 0
1.8 0 0
1.85 0 0
1.8 0.05 0
1.85 0.05 0
1.85 0 0
1.9 0 0
1.85 0.05 0
1.9 0.05 0
1.9 0 0
1.95 0 0
1.9 0.05 0
1.95 0.05 0
1.95 0 0
2 0 0
1.95 0.05 0
2 0.05 0
0 0.05 0
0.05 0.05 0
0 0.1 0
0.05 0.1 0
0.05 0.05 0
0.1 0.05 0
0.05 0.1 0
0.1 0.1 0
0.1 0.05 0
0.15 0.05 0
0.1 0.1 0
0.15 0.1 0
0.15 0.05 0
0.2 0.05 0
0.15 0.1 0
0.2 0.1 0
0.2 0.05 0
0.25 0.05 0
0.2 0.1 0
0.25 0.1 0
0.25 0.05 0
0.3 0.05 0
0.25 0.1 0
0.3 0.1 0
0.3 0.05 0
0.35 0.05 0
0.3 0.1 0
0.35 0.1 0
0.35 0.05 0
0.4 0.05 0
0.35 0.1 0
0.4 0.1 0
0.4 0.05 0
0.45 0.05 0
0.4 0.1 0
0.45 0.1 0
1.15 0.05 0
1.2 0.05 0
1.15 0.1 0
1.2 0.1 0
1.2 0.05 0
1.25 0.05 0
1.2 0.1 0
1.25 0.1 0
1.25 0.05 0
1.3 0.05 0
1.25 0.1 0
1.3 0.1 0
1.3 0.05 0
1.35 0.05 0
1.3 0.1 0
1.35 0.1 0
1.35 0.05 0
1.4 0.05 0
1.35 0.1 0
1.4 0.1 0
1.55 0.05 0
1.6 0.05 0
1.55 0.1 0
1.6 0.1 0
1.6 0.05 0
1.65 0.05 0
1.6 0.1 0
1.65 0.1 0
1.65 0.05 0
1.7 0.05 0
1.65 0.1 0
1.7 0.1 0
1.7 0.05 0
1.75 0.05 0
1.7 0.1 0
1.75 0.1 0
1.75 0.05 0
1.8 0.05 0
1.75 0.1 0
1.8 0.1 0
1.8 0.05 0
1.85 0.05 0
1.8 0.1 0
1.85 0.1 0
1.85 0.05 0
1.9 0.05 0
1.85 0.1 0
1.9 0.1 0
1.9 0.05 0
1.95 0.05 0
1.9 0.1 0
1.95 0.1 0
1.95 0.05 0
2 0.05 0
1.95 0.1 0
2 0.1 0
0.1 0.1 0
0.15 0.1 0
0.1 0.15 0
0.15 0.15 0
0.15 0.1 0
0.2 0.1 0
0.15 0.15 0
0.2 0.15 0
0.2 0.1 0
0.25 0.1 0
0.2 0.15 0
0.25 0.15 0
0.25 0.1 0
0.3 0.1 0
0.25 0.15 0
0.3 0.15 0
0.3 0.1 0
0.35 0.1 0
0.3 0.15 0
0.35 0.15 0
0.35 0.1 0
0.4 0.1 0
0.35 0.15 0
0.4 0.15 0
0.4 0.1 0
0.45 0.1 0
0.4 0.15 0
0.45 0.15 0
1.2 0.1 0
1.25 0.1 0
1.2 0.15 0
1.25 0.15 0
1.25 0.1 0
1.3 0.1 0
1.25 0.15 0
1.3 0.15 0
1.35 0.1 0
1.4 0.1 0
1.35 0.15 0
1.4 0.15 0
1.4 0.1 0
1.45 0.1 0
1.4 0.15 0
1.45 0.15 0
1.6 0.1 0
1.65 0.1 0
1.6 0.15 0
1.65 0.15 0
1.65 0.1 0
1.7 0.1 0
1.65 0.15 0
1.7 0.15 0
1.7 0.1 0
1.75 0.1 0
1.7 0.15 0
1.75 0.15 0
1.75 0.1 0
1.8 0.1 0
1.75 0.15 0
1.8 0.15 0
1.8 0.1 0
1.85 0.1 0
1.8 0.15 0
1.85 0.15 0
1.85 0.1 0
1.9 0.1 0
1.85 0.15 0
1.9 0.15 0
1.9 0.1 0
1.95 0.1 0
1.9 0.15 0
1.95 0.15 0
1.95 0.1 0
2 0.1 0
1.95 0.15 0
2 0.15 0
0.2 0.15 0
0.25 0.15 0
0.2 0.2 0
0.25 0.2 0
0.25 0.15 0
0.3 0.15 0
0.25 0.2 0
0.3 0.2 0
0.3 0.15 0
0.35 0.15 0
0.3 0.2 0
0.35 0.2 0
0.35 0.15 0
0.4 0.15 0
0.35 0.2 0
0.4 0.2 0
0.4 0.15 0
0.45 0.15 0
0.4 0.2 0
0.45 0.2 0
0.6 0.15 0
0.65 0.15 0
0.6 0.2 0
0.65 0.2 0
0.65 0.15 0
0.7 0.15 0
0.65 0.2 0
0.7 0.2 0
0.7 0.15 0
0.75 0.15 0
0.7 0.2 0
0.75 0.2 0
0.75 0.15 0
0.8 0.15 0
0.75 0.2 0
0.8 0.2 0
0.8 0.15 0
0.85 0.15 0
0.8 0.2 0
0.85 0.2 0
0.85 0.15 0
0.9 0.15 0
0.85 0.2 0
0.9 0.2 0
0.9 0.15 0
0.95 0.15 0
0.9 0.2 0
0.95 0.2 0
0.95 0.15 0
1 0.15 0
0.95 0.2 0
1 0.2 0
1 0.15 0
1.05 0.15 0
1 0.2 0
1.05 0.2 0
1.05 0.15 0
1.1 0.15 0
1.05 0.2 0
1.1 0.2 0
1.2 0.15 0
1.25 0.15 0
1.2 0.2 0
1.25 0.2 0
1.45 0.15 0
1.5 0.15 0
1.45 0.2 0
1.5 0.2 0
1.5 0.15 0
1.55 0.15 0
1.5 0.2 0
1.55 0.2 0
1.7 0.15 0
1.75 0.15 0
1.7 0.2 0
1.75 0.2 0
1.75 0.15 0
1.8 0.15 0
1.75 0.2 0
1.8 0.2 0
1.8 0.15 0
1.85 0.15 0
1.8 0.2 0
1.85 0.2 0
1.85 0.15 0
1.9 0.15 0
1.85 0.2 0
1.9 0.2 0
1.9 0.15 0
1.95 0.15 0
1.9 0.2 0
1.95 0.2 0
1.95 0.15 0
2 0.15 0
1.95 0.2 0
2 0.2 0
0 0.2 0
0.05 0.2 0
0 0.25 0
0.05 0.25 0
0.05 0.2 0
0.1 0.2 0
0.05 0.25 0
0.1 0.25 0
0.3 0.2 0
0.35 0.2 0
0.3 0.25 0
0.35 0.25 0
0.35 0.2 0
0.4 0.2 0
0.35 0.25 0
0.4 0.25 0
0.4 0.2 0
0.45 0.2 0
0.4 0.25 0
0.45 0.25 0
0.45 0.2 0
0.5 0.2 0
0.45 0.25 0
0.5 0.25 0
0.7 0.2 0
0.75 0.2 0
0.7 0.25 0
0.75 0.25 0
0.75 0.2 0
0.8 0.2 0
0.75 0.25 0
0.8 0.25 0
0.8 0.2 0
0.85 0.2 0
0.8 0.25 0
0.85 0.25 0
0.85 0.2 0
0.9 0.2 0
0.85 0.25 0
0.9 0.25 0
0.9 0.2 0
0.95 0.2 0
0.9 0.25 0
0.95 0.25 0
0.95 0.2 0
1 0.2 0
0.95 0.25 0
1 0.25 0
1 0.2 0
1.05 0.2 0
1 0.25 0
1.05 0.25 0
1.15 0.2 0
1.2 0.2 0
1.15 0.25 0
1.2 0.25 0
1.3 0.2 0
1.35 0.2 0
1.3 0.25 0
1.35 0.25 0
1.5 0.2 0
1.55 0.2 0
1.5 0.25 0
1.55 0.25 0
1.55 0.2 0
1.6 0.2 0
1.55 0.25 0
1.6 0.25 0
1.6 0.2 0
1.65 0.2 0
1.6 0.25 0
1.65 0.25 0
1.75 0.2 0
1.8 0.2 0
1.75 0.25 0
1.8 0.25 0
1.8 0.2 0
1.85 0.2 0
1.8 0.25 0
1.85 0.25 0
1.85 0.2 0
1.9 0.2 0
1.85 0.25 0
1.9 0.25 0
1.9 0.2 0
1.95 0.2 0
1.9 0.25 0
1.95 0.25 0
1.95 0.2 0
2 0.2 0
1.95 0.25 0
2 0.25 0
0 0.25 0
0.05 0.25 0
0 0.3 0
0.05 0.3 0
0.05 0.25 0
0.1 0.25 0
0.05 0.3 0
0.1 0.3 0
0.1 0.25 0
0.15 0.25 0
0.1 0.3 0
0.15 0.3 0
0.15 0.25 0
0.2 0.25 0
0.15 0.3 0
0.2 0.3 0
0.4 0.25 0
0.45 0.25 0
0.4 0.3 0
0.45 0.3 0
0.45 0.25 0
0.5 0.25 0
0.45 0.3 0
0.5 0.3 0
0.5 0.25 0
0.55 0.25 0
0.5 0.3 0
0.55 0.3 0
0.55 0.25 0
0.6 0.25 0
0.55 0.3 0
0.6 0.3 0
0.85 0.25 0
0.9 0.25 0
0.85 0.3 0
0.9 0.3 0
0.9 0.25 0
0.95 0.25 0
0.9 0.3 0
0.95 0.3 0
0.95 0.25 0
1 0.25 0
0.95 0.3 0
1 0.3 0
1 0.25 0
1.05 0.25 0
1 0.3 0
1.05 0.3 0
1.25 0.25 0
1.3 0.25 0
1.25 0.3 0
1.3 0.3 0
1.3 0.25 0
1.35 0.25 0
1.3 0.3 0
1.35 0.3 0
1.35 0.25 0
1.4 0.25 0
1.35 0.3 0
1.4 0.3 0
1.4 0.25 0
1.45 0.25 0
1.4 0.3 0
1.45 0.3 0
1.6 0.25 0
1.65 0.25 0
1.6 0.3 0
1.65 0.3 0
1.65 0.25 0
1.7 0.25 0
1.65 0.3 0
1.7 0.3 0
1.85 0.25 0
1.9 0.25 0
1.85 0.3 0
1.9 0.3 0
1.9 0.25 0
1.95 0.25 0
1.9 0.3 0
1.95 0.3 0
1.95 0.25 0
2 0.25 0
1.95 0.3 0
2 0.3 0
0 0.3 0
0.05 0.3 0
0 0.35 0
0.05 0.35 0
0.05 0.3 0
0.1 0.3 0
0.05 0.35 0
0.1 0.35 0
0.1 0.3 0
0.15 0.3 0
0.1 0.35 0
0.15 0.35 0
0.15 0.3 0
0.2 0.3 0
0.15 0.35 0
0.2 0.35 0
0.2 0.3 0
0.25 0.3 0
0.2 0.35 0
0.25 0.35 0
0.25 0.3 0
0.3 0.3 0
0.25 0.35 0
0.3 0.35 0
0.5 0.3 0
0.55 0.3 0
0.5 0.35 0
0.55 0.35 0
0.55 0.3 0
0.6 0.3 0
0.55 0.35 0
0.6 0.35 0
0.6 0.3 0
0.65 0.3 0
0.6 0.35 0
0.65 0.35 0
0.65 0.3 0
0.7 0.3 0
0.65 0.35 0
0.7 0.35 0
0.7 0.3 0
0.75 0.3 0
0.7 0.35 0
0.75 0.35 0
0.95 0.3 0
1 0.3 0
0.95 0.35 0
1 0.35 0
1.1 0.3 0
1.15 0.3 0
1.1 0.35 0
1.15 0.35 0
1.2 0.3 0
1.25 0.3 0
1.2 0.35 0
1.25 0.35 0
1.25 0.3 0
1.3 0.3 0
1.25 0.35 0
1.3 0.35 0
1.3 0.3 0
1.35 0.3 0
1.3 0.35 0
1.35 0.35 0
1.35 0.3 0
1.4 0.3 0
1.35 0.35 0
1.4 0.35 0
1.4 0.3 0
1.45 0.3 0
1.4 0.35 0
1.45 0.35 0
1.45 0.3 0
1.5 0.3 0
1.45 0.35 0
1.5 0.35 0
1.65 0.3 0
1.7 0.3 0
1.65 0.35 0
1.7 0.35 0
1.7 0.3 0
1.75 0.3 0
1.7 0.35 0
1.75 0.35 0
1.75 0.3 0
1.8 0.3 0
1.75 0.35 0
1.8 0.35 0
1.95 0.3 0
2 0.3 0
1.95 0.35 0
2 0.35 0
0 0.35 0
0.05 0.35 0
0 0.4 0
0.05 0.4 0
0.05 0.35 0
0.1 0.35 0
0.05 0.4 0
0.1 0.4 0
0.1 0.35 0
0.15 0.35 0
0.1 0.4 0
0.15 0.4 0
0.15 0.35 0
0.2 0.35 0
0.15 0.4 0
0.2 0.4 0
0.2 0.35 0
0.25 0.35 0
0.2 0.4 0
0.25 0.4 0
0.25 0.35 0
0.3 0.35 0
0.25 0.4 0
0.3 0.4 0
0.3 0.35 0
0.35 0.35 0
0.3 0.4 0
0.35 0.4 0
0.35 0.35 0
0.4 0.35 0
0.35 0.4 0
0.4 0.4 0
0.65 0.35 0
0.7 0.35 0
0.65 0.4 0
0.7 0.4 0
0.7 0.35 0
0.75 0.35 0
0.7 0.4 0
0.75 0.4 0
0.75 0.35 0
0.8 0.35 0
0.75 0.4 0
0.8 0.4 0
0.8 0.35 0
0.85 0.35 0
0.8 0.4 0
0.85 0.4 0
1.05 0.35 0
1.1 0.35 0
1.05 0.4 0
1.1 0.4 0
1.2 0.35 0
1.25 0.35 0
1.2 0.4 0
1.25 0.4 0
1.25 0.35 0
1.3 0.35 0
1.25 0.4 0
1.3 0.4 0
1.3 0.35 0
1.35 0.35 0
1.3 0.4 0
1.35 0.4 0
1.35 0.35 0
1.4 0.35 0
1.35 0.4 0
1.4 0.4 0
1.4 0.35 0
1.45 0.35 0
1.4 0.4 0
1.45 0.4 0
1.45 0.35 0
1.5 0.35 0
1.45 0.4 0
1.5 0.4 0
1.5 0.35 0
1.55 0.35 0
1.5 0.4 0
1.55 0.4 0
1.55 0.35 0
1.6 0.35 0
1.55 0.4 0
1.6 0.4 0
1.75 0.35 0
1.8 0.35 0
1.75 0.4 0
1.8 0.4 0
1.8 0.35 0
1.85 0.35 0
1.8 0.4 0
1.85 0.4 0
0 0.4 0
0.05 0.4 0
0 0.45 0
0.05 0.45 0
0.05 0.4 0
0.1 0.4 0
0.05 0.45 0
0.1 0.45 0
0.1 0.4 0
0.15 0.4 0
0.1 0.45 0
0.15 0.45 0
0.15 0.4 0
0.2 0.4 0
0.15 0.45 0
0.2 0.45 0
0.2 0.4 0
0.25 0.4 0
0.2 0.45 0
0.25 0.45 0
0.25 0.4 0
0.3 0.4 0
0.25 0.45 0
0.3 0.45 0
0.3 0.4 0
0.35 0.4 0
0.3 0.45 0
0.35 0.45 0
0.35 0.4 0
0.4 0.4 0
0.35 0.45 0
0.4 0.45 0
0.4 0.4 0
0.45 0.4 0
0.4 0.45 0
0.45 0.45 0
0.45 0.4 0
0.5 0.4 0
0.45 0.45 0
0.5 0.45 0
0.5 0.4 0
0.55 0.4 0
0.5 0.45 0
0.55 0.45 0
0.7 0.4 0
0.75 0.4 0
0.7 0.45 0
0.75 0.45 0
0.75 0.4 0
0.8 0.4 0
0.75 0.45 0
0.8 0.45 0
0.8 0.4 0
0.85 0.4 0
0.8 0.45 0
0.85 0.45 0
0.85 0.4 0
0.9 0.4 0
0.85 0.45 0
0.9 0.45 0
0.9 0.4 0
0.95 0.4 0
0.9 0.45 0
0.95 0.45 0
0.95 0.4 0
1 0.4 0
0.95 0.45 0
1 0.45 0
1 0.4 0
1.05 0.4 0
1 0.45 0
1.05 0.45 0
1.15 0.4 0
1.2 0.4 0
1.15 0.45 0
1.2 0.45 0
1.2 0.4 0
1.25 0.4 0
1.2 0.45 0
1.25 0.45 0
1.25 0.4 0
1.3 0.4 0
1.25 0.45 0
1.3 0.45 0
1.3 0.4 0
1.35 0.4 0
1.3 0.45 0
1.35 0.45 0
1.35 0.4 0
1.4 0.4 0
1.35 0.45 0
1.4 0.45 0
1.4 0.4 0
1.45 0.4 0
1.4 0.45 0
1.45 0.45 0
1.45 0.4 0
1.5 0.4 0
1.45 0.45 0
1.5 0.45 0
1.5 0.4 0
1.55 0.4 0
1.5 0.45 0
1.55 0.45 0
1.55 0.4 0
1.6 0.4 0
1.55 0.45 0
1.6 0.45 0
1.6 0.4 0
1.65 0.4 0
1.6 0.45 0
1.65 0.45 0
1.65 0.4 0
1.7 0.4 0
1.65 0.45 0
1.7 0.45 0
1.8 0.4 0
1.85 0.4 0
1.8 0.45 0
1.85 0.45 0
1.85 0.4 0
1.9 0.4 0
1.85 0.45 0
1.9 0.45 0
1.9 0.4 0
1.95 0.4 0
1.9 0.45 0
1.95 0.45 0
0 0.45 0
0.05 0.45 0
0 0.5 0
0.05 0.5 0
0.05 0.45 0
0.1 0.45 0
0.05 0.5 0
0.1 0.5 0
0.1 0.45 0
0.15 0.45 0
0.1 0.5 0
0.15 0.5 0
0.15 0.45 0
0.2 0.45 0
[...]
POINT_DATA 6560
SCALARS x_displacement double 1
LOOKUP_TABLE default
0 1.95577 0 0.967118 1.95577 3.37972 0.967118 1.9847 3.37972 4.46771 1.9847 2.87094 4.46771 5.33091 2.87094 3.6417 5.33091 6.04411 3.6417 4.31612 6.04411 6.66703 4.31612 4.91113 6.66703 7.25447 4.91113 5.4494 7.25447 7.84193 5.4494 5.97451 7.84193 8.41375 5.97451 6.52018 8.41375 8.93408 6.52018 7.06283 8.93408 9.39229 7.06283 7.6128 9.39229 9.84568 7.6128 8.15024 9.84568 10.3516 8.15024 8.68416 10.3516 10.9114 8.68416 9.24174 10.9114 11.4942 9.24174 9.83043 11.4942 12.106 9.83043 10.4319 12.106 12.7652 10.4319 11.034 12.7652 13.4592 11.034 11.6559 13.4592 14.1699 11.6559 12.3017 14.1699 14.9015 12.3017 12.9213 14.9015 15.6449 12.9213 13.4874 15.6449 16.3201 13.4874 14.0287 16.3201 16.8399 14.0287 14.5246 16.8399 17.2175 14.5246 14.9641 17.2175 17.5037 14.9641 15.3507 17.5037 17.6748 15.3507 15.6604 17.6748 17.7166 15.6604 15.9307 18.4663 16.9454 16.9461 17.7713 16.9454 19.6101 17.7713 18.1617 19.6101 21.2072 18.1617 17.9949 21.2072 22.0678 17.9949 19.04 22.0678 22.6911 19.04 19.6788 22.6911 23.1322 19.6788 20.1553 23.1322 23.4362 20.1553 20.5517 23.4362 23.6026 20.5517 20.7719 23.6026 23.6342 20.7719 20.8746 23.6342 23.6093 20.8746 20.9145 23.6093 23.5964 20.9145 20.9244 0 0.967118 0 0.335602 0.967118 1.9847 0.335602 0.912658 1.9847 2.87094 0.912658 1.55563 2.87094 3.6417 1.55563 2.18714 3.6417 4.31612 2.18714 2.77256 4.31612 4.91113 2.77256 3.28504 4.91113 5.4494 3.28504 3.72313 5.4494 5.97451 3.72313 4.1096 5.97451 6.52018 4.1096 4.54429 14.5246 14.9641 12.3872 12.9428 14.9641 15.3507 12.9428 13.3558 15.3507 15.6604 13.3558 13.7613 15.6604 15.9307 13.7613 14.1994 15.9307 16.3594 14.1994 14.6853 18.1617 17.9949 16.4408 16.9852 17.9949 19.04 16.9852 16.4102 19.04 19.6788 16.4102 16.969 19.6788 20.1553 16.969 17.5858 20.1553 20.5517 17.5858 17.9674 20.5517 20.7719 17.9674 18.1576 20.7719 20.8746 18.1576 18.2789 20.8746 20.9145 18.2789 18.3229 20.9145 20.9244 18.3229 18.3351 0.912658 1.55563 -0.18303 0.33752 1.55563 2.18714 0.33752 0.894545 2.18714 2.77256 0.894545 1.3577 2.77256 3.28504 1.3577 1.8053 3.28504 3.72313 1.8053 2.18898 3.72313 4.1096 2.18898 2.441 4.1096 4.54429 2.441 2.56497 12.9428 13.3558 11.1907 11.3179 13.3558 13.7613 11.3179 11.7164 14.1994 14.6853 12.4094 12.9148 14.6853 15.2436 12.9148 13.3902 16.9852 16.4102 14.6985 15.1766 16.4102 16.969 15.1766 15.6888 16.969 17.5858 15.6888 15.0252 17.5858 17.9674 15.0252 15.5024 17.9674 18.1576 15.5024 15.7527 18.1576 18.2789 15.7527 15.8561 18.2789 18.3229 15.8561 15.9244 18.3229 18.3351 15.9244 15.905 0.894545 1.3577 -0.446303 -0.0354081 1.3577 1.8053 -0.0354081 0.521604 1.8053 2.18898 0.521604 0.901255 2.18898 2.441 0.901255 1.24621 2.441 2.56497 1.24621 1.61442 5.82031 6.21173 4.86537 5.05916 6.21173 6.72812 5.05916 5.41922 6.72812 7.37437 5.41922 6.05822 7.37437 7.89846 6.05822 6.6066 7.89846 8.23642 6.6066 6.85712 8.23642 8.46266 6.85712 7.07701 8.46266 8.87656 7.07701 7.38209 8.87656 9.3115 7.38209 7.58351 9.3115 9.56236 7.58351 7.64111 9.56236 9.74708 7.64111 7.74366 11.1907 11.3179 9.53631 9.39654 13.3902 13.8463 11.3291 11.6367 13.8463 14.2891 11.6367 12.0209 15.6888 15.0252 13.3995 13.8578 15.0252 15.5024 13.8578 13.305 15.5024 15.7527 13.305 13.4419 15.7527 15.8561 13.4419 13.7448 15.8561 15.9244 13.7448 13.7321 15.9244 15.905 13.7321 13.6201 0 -1.52641 0 -0.328012 -1.52641 -0.859514 -0.328012 -0.843068 0.521604 0.901255 -0.698507 -0.283417 0.901255 1.24621 -0.283417 0.283561 1.24621 1.61442 0.283561 0.736342 1.61442 2.10572 0.736342 1.19362 5.41922 6.05822 4.1024 5.00747 6.05822 6.6066 5.00747 5.28356 6.6066 6.85712 5.28356 5.44049 6.85712 7.07701 5.44049 5.73459 7.07701 7.38209 5.73459 6.02999 7.38209 7.58351 6.02999 6.19037 7.58351 7.64111 6.19037 6.31825 9.57585 9.53631 7.69201 7.73336 10.8158 10.8488 9.05749 9.18465 11.6367 12.0209 9.25671 9.70414 12.0209 12.4385 9.70414 10.1387 12.4385 12.8587 10.1387 10.5704 13.8578 13.305 11.4224 11.8628 13.305 13.4419 11.8628 12.4285 13.4419 13.7448 12.4285 11.3375 13.7448 13.7321 11.3375 11.7111 13.7321 13.6201 11.7111 11.7266 0 -0.328012 0 -0.248123 -0.328012 -0.843068 -0.248123 -0.551118 -0.843068 -1.08448 -0.551118 -0.924568 -1.08448 -1.55569 -0.924568 -1.16662 0.283561 0.736342 -0.689152 -0.239233 0.736342 1.19362 -0.239233 0.327619 1.19362 1.65608 0.327619 0.771493 1.65608 2.08046 0.771493 1.22046 5.44049 5.73459 4.06868 4.68903 5.73459 6.02999 4.68903 4.86186 6.02999 6.19037 4.86186 4.96248 6.19037 6.31825 4.96248 5.32724 8.97908 9.05749 6.77884 6.88745 9.05749 9.18465 6.88745 7.29375 9.18465 9.33607 7.29375 7.28083 9.33607 9.34992 7.28083 7.24803 10.1387 10.5704 7.80184 8.24083 10.5704 11.0137 8.24083 8.64262 12.4285 11.3375 10.0374 10.6562 11.3375 11.7111 10.6562 10.6998 11.7111 11.7266 10.6998 10.1922 0 -0.248123 0 -0.170131 -0.248123 -0.551118 -0.170131 -0.397706 -0.551118 -0.924568 -0.397706 -0.622285 -0.924568 -1.16662 -0.622285 -0.829723 -1.16662 -1.39849 -0.829723 -1.05283 -1.39849 -1.65451 -1.05283 -1.13104 0.327619 0.771493 -0.555055 -0.0987286 0.771493 1.22046 -0.0987286 0.475132 1.22046 1.71781 0.475132 0.94796 1.71781 2.27053 0.94796 1.3727 2.27053 2.49139 1.3727 1.79071 4.86186 4.96248 3.81844 3.88471 5.77078 5.96379 4.59985 4.47654 6.61916 6.77884 4.88649 4.95321 6.77884 6.88745 4.95321 5.55725 6.88745 7.29375 5.55725 5.51916 7.29375 7.28083 5.51916 5.49152 7.28083 7.24803 5.49152 5.40582 7.24803 7.3053 5.40582 4.09364 8.24083 8.64262 5.84252 6.24849 8.64262 9.06203 6.24849 6.66613 9.06203 9.49736 6.66613 7.08897 10.6998 10.1922 8.24817 9.44473 0 -0.170131 0 -0.110941 -0.170131 -0.397706 -0.110941 -0.248018 -0.397706 -0.622285 -0.248018 -0.39464 -0.622285 -0.829723 -0.39464 -0.538929 -0.829723 -1.05283 -0.538929 -0.653067 -1.05283 -1.13104 -0.653067 -0.746853 -1.13104 -1.22404 -0.746853 -0.847918 -1.22404 -1.37462 -0.847918 -0.848037 0.94796 1.3727 0.176858 0.668799 1.3727 1.79071 0.668799 1.10956 1.79071 2.41578 1.10956 1.52131 2.41578 2.88284 1.52131 1.93951 4.66012 4.59985 3.04904 3.15171 4.88649 4.95321 3.36683 3.54135 4.95321 5.55725 3.54135 3.55707 5.55725 5.51916 3.55707 3.53432 5.51916 5.49152 3.53432 3.51809 5.49152 5.40582 3.51809 3.55192 5.40582 4.09364 3.55192 5.48779 4.09364 4.94177 5.48779 4.00694 4.94177 5.52655 4.00694 3.24242 6.66613 7.08897 4.20686 4.62307 7.08897 7.54445 4.62307 4.99311 0 -0.110941 0 -0.0537801 -0.110941 -0.248018 -0.0537801 -0.120208 -0.248018 -0.39464 -0.120208 -0.192208 -0.39464 -0.538929 -0.192208 -0.260332 -0.538929 -0.653067 -0.260332 -0.320495 -0.653067 -0.746853 -0.320495 -0.371818 -0.746853 -0.847918 -0.371818 -0.394474 -0.847918 -0.848037 -0.394474 -0.390587 -0.848037 -1.01909 -0.390587 -0.222416 -1.01909 -2.06071 -0.222416 0.375599 -2.06071 -0.382811 0.375599 -1.74134 0.668799 1.10956 0.0427877 0.466978 1.10956 1.52131 0.466978 0.728649 1.52131 1.93951 0.728649 0.95802 1.93951 2.44601 0.95802 1.15616 2.44601 2.73173 1.15616 1.31789 2.73173 2.95179 1.31789 1.36526 2.95179 3.04904 1.36526 1.33615 3.24068 3.36683 1.58888 1.73937 3.36683 3.54135 1.73937 1.77483 3.54135 3.55707 1.77483 1.66156 3.55707 3.53432 1.66156 1.54553 3.53432 3.51809 1.54553 1.37042 3.51809 3.55192 1.37042 1.1862 3.55192 5.48779 1.1862 1.51447 5.48779 4.00694 1.51447 1.80736 4.00694 3.24242 1.80736 1.90922 3.24242 3.61388 1.90922 1.67964 3.61388 3.9256 1.67964 1.28835 4.62307 4.99311 2.12701 2.48129 4.99311 5.40381 2.48129 2.76341 5.40381 5.89428 2.76341 3.08608 0 -0.0537801 0 8.30008e-12 -0.0537801 -0.120208 8.30008e-12 2.10395e-11 -0.120208 -0.192208 2.10395e-11 3.71583e-11 -0.192208 -0.260332 3.71583e-11 5.87643e-11 -0.260332 -0.320495 5.87643e-11 7.10582e-11 -0.320495 -0.371818 7.10582e-11 8.69224e-11 -0.371818 -0.394474 8.69224e-11 9.94689e-11 -0.394474 -0.390587 9.94689e-11 1.30637e-10 -0.390587 -0.222416 1.30637e-10 1.47304e-10 -0.222416 0.375599 1.47304e-10 9.92462e-11 0.375599 -1.74134 9.92462e-11 1.0299e-10 -1.74134 -1.1757 1.0299e-10 5.8507e-12 -1.1757 -0.4966 5.8507e-12 -1.41566e-10 0.466978 0.728649 8.27612e-12 8.91661e-12 0.728649 0.95802 8.91661e-12 1.01501e-11 0.95802 1.15616 1.01501e-11 1.14021e-11 1.15616 1.31789 1.14021e-11 1.2982e-11 1.31789 1.36526 1.2982e-11 1.44326e-11 1.36526 1.33615 1.44326e-11 1.48462e-11 1.58888 1.73937 4.17356e-11 4.17744e-11 1.73937 1.77483 4.17744e-11 4.16929e-11 1.77483 1.66156 4.16929e-11 4.17176e-11 1.66156 1.54553 4.17176e-11 4.24054e-11 1.54553 1.37042 4.24054e-11 4.63113e-11 1.37042 1.1862 4.63113e-11 -9.10697e-10 1.1862 1.51447 -9.10697e-10 -1.60464e-09 1.51447 1.80736 -1.60464e-09 -1.90635e-09 1.80736 1.90922 -1.90635e-09 -4.41539e-09 1.90922 1.67964 -4.41539e-09 -1.32973e-09 1.67964 1.28835 -1.32973e-09 -2.35013e-09 1.28835 1.80697 -2.35013e-09 1.89155e-10 2.48129 2.76341 -1.55631e-11 -1.63681e-11 2.76341 3.08608 -1.63681e-11 -1.55373e-11 3.08608 3.19066 -1.55373e-11 -1.53534e-11 0 8.30008e-12 0 0.0537801 8.30008e-12 2.10395e-11 0.0537801 0.120208 2.10395e-11 3.71583e-11 0.120208 0.192208 3.71583e-11 5.87643e-11 0.192208 0.260332 5.87643e-11 7.10582e-11 0.260332 0.320495 7.10582e-11 8.69224e-11 0.320495 0.371818 8.69224e-11 9.94689e-11 0.371818 0.394474 9.94689e-11 1.30637e-10 0.394474 0.390587 1.30637e-10 1.47304e-10 0.390587 0.222416 1.47304e-10 9.92462e-11 0.222416 -0.375599 9.92462e-11 1.0299e-10 -0.375599 1.74134 1.0299e-10 5.8507e-12 1.74134 1.1757 5.8507e-12 -1.41566e-10 1.1757 0.4966 8.27612e-12 8.91661e-12 -0.466978 -0.728649 8.91661e-12 1.01501e-11 -0.728649 -0.95802 1.01501e-11 1.14021e-11 -0.95802 -1.15616 1.14021e-11 1.2982e-11 -1.15616 -1.31789 1.2982e-11 1.44326e-11 -1.31789 -1.36526 1.44326e-11 1.48462e-11 -1.36526 -1.33615 4.17356e-11 4.17744e-11 -1.58888 -1.73937 4.17744e-11 4.16929e-11 -1.73937 -1.77483 4.16929e-11 4.17176e-11 -1.77483 -1.66156 4.17176e-11 4.24054e-11 -1.66156 -1.54553 4.24054e-11 4.63113e-11 -1.54553 -1.37042 4.63113e-11 -9.10697e-10 -1.37042 -1.1862 -9.10697e-10 -1.60464e-09 -1.1862 -1.51447 -1.60464e-09 -1.90635e-09 -1.51447 -1.80736 -1.90635e-09 -4.41539e-09 -1.80736 -1.90922 -4.41539e-09 -1.32973e-09 -1.90922 -1.67964 -1.32973e-09 -2.35013e-09 -1.67964 -1.28835 -2.35013e-09 1.89155e-10 -1.28835 -1.80697 -1.55631e-11 -1.63681e-11 -2.48129 -2.76341 -1.63681e-11 -1.55373e-11 -2.76341 -3.08608 -1.55373e-11 -1.53534e-11 -3.08608 -3.19066 0 0.0537801 0 0.110941 0.0537801 0.120208 0.110941 0.248018 0.120208 0.192208 0.248018 0.39464 0.192208 0.260332 0.39464 0.538929 0.260332 0.320495 0.538929 0.653067 0.320495 0.371818 0.653067 0.746853 0.371818 0.394474 0.746853 0.847918 0.394474 0.390587 0.847918 0.848037 0.390587 0.222416 0.848037 1.01909 0.222416 -0.375599 1.01909 2.06071 -0.375599 1.74134 2.06071 0.382811 -0.0427877 -0.466978 -0.668799 -1.10956 -0.466978 -0.728649 -1.10956 -1.52131 -0.728649 -0.95802 -1.52131 -1.93951 -0.95802 -1.15616 -1.93951 -2.44601 -1.15616 -1.31789 -2.44601 -2.73173 -1.31789 -1.36526 -2.73173 -2.95179 -1.36526 -1.33615 -2.95179 -3.04904 -1.58888 -1.73937 -3.24068 -3.36683 -1.73937 -1.77483 -3.36683 -3.54135 -1.77483 -1.66156 -3.54135 -3.55707 -1.66156 -1.54553 -3.55707 -3.53432 -1.54553 -1.37042 -3.53432 -3.51809 -1.37042 -1.1862 -3.51809 -3.55192 -1.1862 -1.51447 -3.55192 -5.48779 -1.51447 -1.80736 -5.48779 -4.00694 -1.80736 -1.90922 -4.00694 -3.24242 -1.90922 -1.67964 -3.24242 -3.61388 -1.67964 -1.28835 -3.61388 -3.9256 -2.12701 -2.48129 -4.62307 -4.99311 -2.48129 -2.76341 -4.99311 -5.40381 -2.76341 -3.08608 -5.40381 -5.89428 0 0.110941 0 0.170131 0.110941 0.248018 0.170131 0.397706 0.248018 0.39464 0.397706 0.622285 0.39464 0.538929 0.622285 0.829723 0.538929 0.653067 0.829723 1.05283 0.653067 0.746853 1.05283 1.13104 0.746853 0.847918 1.13104 1.22404 0.847918 0.848037 1.22404 1.37462 -0.176858 -0.668799 -0.94796 -1.3727 -0.668799 -1.10956 -1.3727 -1.79071 -1.10956 -1.52131 -1.79071 -2.41578 -1.52131 -1.93951 -2.41578 -2.88284 -3.04904 -3.15171 -4.66012 -4.59985 -3.36683 -3.54135 -4.88649 -4.95321 -3.54135 -3.55707 -4.95321 -5.55725 -3.55707 -3.53432 -5.55725 -5.51916 -3.53432 -3.51809 -5.51916 -5.49152 -3.51809 -3.55192 -5.49152 -5.40582 -3.55192 -5.48779 -5.40582 -4.09364 -5.48779 -4.00694 -4.09364 -4.94177 -4.00694 -3.24242 -4.94177 -5.52655 -4.20686 -4.62307 -6.66613 -7.08897 -4.62307 -4.99311 -7.08897 -7.54445 0 0.170131 0 0.248123 0.170131 0.397706 0.248123 0.551118 0.397706 0.622285 0.551118 0.924568 0.622285 0.829723 0.924568 1.16662 0.829723 1.05283 1.16662 1.39849 1.05283 1.13104 1.39849 1.65451 0.555055 0.0987286 -0.327619 -0.771493 0.0987286 -0.475132 -0.771493 -1.22046 -0.475132 -0.94796 -1.22046 -1.71781 -0.94796 -1.3727 -1.71781 -2.27053 -1.3727 -1.79071 -2.27053 -2.49139 -3.81844 -3.88471 -4.86186 -4.96248 -4.59985 -4.47654 -5.77078 -5.96379 -4.88649 -4.95321 -6.61916 -6.77884 -4.95321 -5.55725 -6.77884 -6.88745 -5.55725 -5.51916 -6.88745 -7.29375 -5.51916 -5.49152 -7.29375 -7.28083 -5.49152 -5.40582 -7.28083 -7.24803 -5.40582 -4.09364 -7.24803 -7.3053 -5.84252 -6.24849 -8.24083 -8.64262 -6.24849 -6.66613 -8.64262 -9.06203 -6.66613 -7.08897 -9.06203 -9.49736 -8.24817 -9.44473 -10.6998 -10.1922 0 0.248123 0 0.328012 0.248123 0.551118 0.328012 0.843068 0.551118 0.924568 0.843068 1.08448 0.924568 1.16662 1.08448 1.55569 0.689152 0.239233 -0.283561 -0.736342 0.239233 -0.327619 -0.736342 -1.19362 -0.327619 -0.771493 -1.19362 -1.65608 -0.771493 -1.22046 -1.65608 -2.08046 -4.06868 -4.68903 -5.44049 -5.73459 -4.68903 -4.86186 -5.73459 -6.02999 -4.86186 -4.96248 -6.02999 -6.19037 -4.96248 -5.32724 -6.19037 -6.31825 -6.77884 -6.88745 -8.97908 -9.05749 -6.88745 -7.29375 -9.05749 -9.18465 -7.29375 -7.28083 -9.18465 -9.33607 -7.28083 -7.24803 -9.33607 -9.34992 -7.80184 -8.24083 -10.1387 -10.5704 -8.24083 -8.64262 -10.5704 -11.0137 -10.0374 -10.6562 -12.4285 -11.3375 -10.6562 -10.6998 -11.3375 -11.7111 -10.6998 -10.1922 -11.7111 -11.7266 0 0.328012 0 1.52641 0.328012 0.843068 1.52641 0.859514 0.698507 0.283417 -0.521604 -0.901255 0.283417 -0.283561 -0.901255 -1.24621 -0.283561 -0.736342 -1.24621 -1.61442 -0.736342 -1.19362 -1.61442 -2.10572 -4.1024 -5.00747 -5.41922 -6.05822 -5.00747 -5.28356 -6.05822 -6.6066 -5.28356 -5.44049 -6.6066 -6.85712 -5.44049 -5.73459 -6.85712 -7.07701 -5.73459 -6.02999 -7.07701 -7.38209 -6.02999 -6.19037 -7.38209 -7.58351 -6.19037 -6.31825 -7.58351 -7.64111 -7.69201 -7.73336 -9.57585 -9.53631 -9.05749 -9.18465 -10.8158 -10.8488 -9.25671 -9.70414 -11.6367 -12.0209 -9.70414 -10.1387 -12.0209 -12.4385 -10.1387 -10.5704 -12.4385 -12.8587 -11.4224 -11.8628 -13.8578 -13.305 -11.8628 -12.4285 -13.305 -13.4419 -12.4285 -11.3375 -13.4419 -13.7448 -11.3375 -11.7111 -13.7448 -13.7321 -11.7111 -11.7266 -13.7321 -13.6201 0.446303 0.0354081 -0.894545 -1.3577 0.0354081 -0.521604 -1.3577 -1.8053 -0.521604 -0.901255 -1.8053 -2.18898 -0.901255 -1.24621 -2.18898 -2.441 -1.24621 -1.61442 -2.441 -2.56497 -4.86537 -5.05916 -5.82031 -6.21173 -5.05916 -5.41922 -6.21173 -6.72812 -5.41922 -6.05822 -6.72812 -7.37437 -6.05822 -6.6066 -7.37437 -7.89846 -6.6066 -6.85712 -7.89846 -8.23642 -6.85712 -7.07701 -8.23642 -8.46266 -7.07701 -7.38209 -8.46266 -8.87656 -7.38209 -7.58351 -8.87656 -9.3115 -7.58351 -7.64111 -9.3115 -9.56236 -7.64111 -7.74366 -9.56236 -9.74708 -9.53631 -9.39654 -11.1907 -11.3179 -11.3291 -11.6367 -13.3902 -13.8463 -11.6367 -12.0209 -13.8463 -14.2891 -13.3995 -13.8578 -15.6888 -15.0252 -13.8578 -13.305 -15.0252 -15.5024 -13.305 -13.4419 -15.5024 -15.7527 -13.4419 -13.7448 -15.7527 -15.8561 -13.7448 -13.7321 -15.8561 -15.9244 -13.7321 -13.6201 -15.9244 -15.905 0.18303 -0.33752 -0.912658 -1.55563 -0.33752 -0.894545 -1.55563 -2.18714 -0.894545 -1.3577 -2.18714 -2.77256 -1.3577 -1.8053 -2.77256 -3.28504 -1.8053 -2.18898 -3.28504 -3.72313 -2.18898 -2.441 -3.72313 -4.1096 -2.441 -2.56497 -4.1096 -4.54429 -11.1907 -11.3179 -12.9428 -13.3558 -11.3179 -11.7164 -13.3558 -13.7613 -12.4094 -12.9148 -14.1994 -14.6853 -12.9148 -13.3902 -14.6853 -15.2436 -14.6985 -15.1766 -16.9852 -16.4102 -15.1766 -15.6888 -16.4102 -16.969 -15.6888 -15.0252 -16.969 -17.5858 -15.0252 -15.5024 -17.5858 -17.9674 -15.5024 -15.7527 -17.9674 -18.1576 -15.7527 -15.8561 -18.1576 -18.2789 -15.8561 -15.9244 -18.2789 -18.3229 -15.9244 -15.905 -18.3229 -18.3351 0 -0.335602 0 -0.967118 -0.335602 -0.912658 -0.967118 -1.9847 -0.912658 -1.55563 -1.9847 -2.87094 -1.55563 -2.18714 -2.87094 -3.6417 -2.18714 -2.77256 -3.6417 -4.31612 -2.77256 -3.28504 -4.31612 -4.91113 -3.28504 -3.72313 -4.91113 -5.4494 -3.72313 -4.1096 -5.4494 -5.97451 -4.1096 -4.54429 -5.97451 -6.52018 -12.3872 -12.9428 -14.5246 -14.9641 -12.9428 -13.3558 -14.9641 -15.3507 -13.3558 -13.7613 -15.3507 -15.6604 -13.7613 -14.1994 -15.6604 -15.9307 -14.1994 -14.6853 -15.9307 -16.3594 -16.4408 -16.9852 -18.1617 -17.9949 -16.9852 -16.4102 -17.9949 -19.04 -16.4102 -16.969 -19.04 -19.6788 -16.969 -17.5858 -19.6788 -20.1553 -17.5858 -17.9674 -20.1553 -20.5517 -17.9674 -18.1576 -20.5517 -20.7719 -18.1576 -18.2789 -20.7719 -20.8746 -18.2789 -18.3229 -20.8746 -20.9145 -18.3229 -18.3351 -20.9145 -20.9244 0 -0.967118 0 -1.95577 -0.967118 -1.9847 -1.95577 -3.37972 -1.9847 -2.87094 -3.37972 -4.46771 -2.87094 -3.6417 -4.46771 -5.33091 -3.6417 -4.31612 -5.33091 -6.04411 -4.31612 -4.91113 -6.04411 -6.66703 -4.91113 -5.4494 -6.66703 -7.25447 -5.4494 -5.97451 -7.25447 -7.84193 -5.97451 -6.52018 -7.84193 -8.41375 -6.52018 -7.06283 -8.41375 -8.93408 -7.06283 -7.6128 -8.93408 -9.39229 -7.6128 -8.15024 -9.39229 -9.84568 -8.15024 -8.68416 -9.84568 -10.3516 -8.68416 -9.24174 -10.3516 -10.9114 -9.24174 -9.83043 -10.9114 -11.4942 -9.83043 -10.4319 -11.4942 -12.106 -10.4319 -11.034 -12.106 -12.7652 -11.034 -11.6559 -12.7652 -13.4592 -11.6559 -12.3017 -13.4592 -14.1699 -12.3017 -12.9213 -14.1699 -14.9015 -12.9213 -13.4874 -14.9015 -15.6449 -13.4874 -14.0287 -15.6449 -16.3201 -14.0287 -14.5246 -16.3201 -16.8399 -14.5246 -14.9641 -16.8399 -17.2175 -14.9641 -15.3507 -17.2175 -17.5037 -15.3507 -15.6604 -17.5037 -17.6748 -15.6604 -15.9307 -17.6748 -17.7166 -16.9461 -17.7713 -18.4663 -16.9454 -17.7713 -18.1617 -16.9454 -19.6101 -18.1617 -17.9949 -19.6101 -21.2072 -17.9949 -19.04 -21.2072 -22.0678 -19.04 -19.6788 -22.0678 -22.6911 -19.6788 -20.1553 -22.6911 -23.1322 -20.1553 -20.5517 -23.1322 -23.4362 -20.5517 -20.7719 -23.4362 -23.6026 -20.7719 -20.8746 -23.6026 -23.6342 -20.8746 -20.9145 -23.6342 -23.6093 -20.9145 -20.9244 -23.6093 -23.5964 17.7166 17.7317 16.8236 16.8728 17.7317 17.3934 16.8728 17.142 16.8236 16.8728 15.9307 16.145 16.8728 17.142 16.145 16.3594 17.3934 18.2295 17.142 17.3764 18.2295 18.4663 17.3764 17.7062 17.142 17.3764 16.3594 16.5855 17.3764 17.7062 16.5855 16.9461 6.52018 6.7915 5.53224 5.82907 6.7915 7.06283 5.82907 6.1274 5.53224 5.82907 4.54429 4.83306 5.82907 6.1274 4.83306 5.16965 7.06283 7.33781 6.1274 6.42819 7.33781 7.6128 6.42819 6.7305 6.1274 6.42819 5.16965 5.51167 6.42819 6.7305 5.51167 5.85736 7.6128 7.88152 6.7305 7.02592 7.88152 8.15024 7.02592 7.30844 6.7305 7.02592 5.85736 6.19677 7.02592 7.30844 6.19677 6.51329 8.15024 8.4172 7.30844 7.58046 8.4172 8.68416 7.58046 7.84053 7.30844 7.58046 6.51329 6.79834 7.58046 7.84053 6.79834 7.04865 8.68416 8.96295 7.84053 8.0985 8.96295 9.24174 8.0985 8.37293 7.84053 8.0985 7.04865 7.28051 8.0985 8.37293 7.28051 7.52272 9.24174 9.53609 8.37293 8.66887 9.53609 9.83043 8.66887 8.98335 8.37293 8.66887 7.52272 7.81459 8.66887 8.98335 7.81459 8.14713 9.83043 10.1312 8.98335 9.29445 10.1312 10.4319 9.29445 9.59356 8.98335 9.29445 8.14713 8.48254 9.29445 9.59356 8.48254 8.78534 10.4319 10.733 9.59356 9.88175 10.733 11.034 9.88175 10.1646 9.59356 9.88175 8.78534 9.0605 9.88175 10.1646 9.0605 9.31921 11.034 11.345 10.1646 10.451 11.345 11.6559 10.451 10.7488 10.1646 10.451 9.31921 9.58115 10.451 10.7488 9.58115 9.85368 11.6559 11.9788 10.7488 11.0555 11.9788 12.3017 11.0555 11.3694 10.7488 11.0555 9.85368 10.1431 11.0555 11.3694 10.1431 10.4449 12.3017 12.6115 11.3694 11.6742 12.6115 12.9213 11.6742 11.9469 11.3694 11.6742 10.4449 10.7313 11.6742 11.9469 10.7313 10.9903 12.9213 13.2044 11.9469 12.2077 13.2044 13.4874 12.2077 12.4475 11.9469 12.2077 10.9903 11.2246 12.2077 12.4475 11.2246 11.4255 13.4874 13.7581 