# vtk DataFile Version 3.0
#This file was generated by the deal.II library on 2016/3/9 at 8:35:02
ASCII
DATASET UNSTRUCTURED_GRID

POINTS 6608 double
0.125 0.375 0
0.25 0.375 0
0.125 0.5 0
0.25 0.5 0
1.75 0 0
1.875 0 0
1.75 0.125 0
1.875 0.125 0
1.875 0 0
2 0 0
1.875 0.125 0
2 0.125 0
0.125 0.5 0
0.25 0.5 0
0.125 0.625 0
0.25 0.625 0
1.75 0.875 0
1.875 0.875 0
1.75 1 0
1.875 1 0
1.875 0.875 0
2 0.875 0
1.875 1 0
2 1 0
0.125 0 0
0.1875 0 0
0.125 0.0625 0
0.1875 0.0625 0
0.1875 0 0
0.25 0 0
0.1875 0.0625 0
0.25 0.0625 0
0.25 0 0
0.3125 0 0
0.25 0.0625 0
0.3125 0.0625 0
0.3125 0 0
0.375 0 0
0.3125 0.0625 0
0.375 0.0625 0
0.375 0 0
0.4375 0 0
0.375 0.0625 0
0.4375 0.0625 0
0.4375 0.0625 0
0.5 0.0625 0
0.4375 0.125 0
0.5 0.125 0
0.125 0.3125 0
0.1875 0.3125 0
0.125 0.375 0
0.1875 0.375 0
0.1875 0.3125 0
0.25 0.3125 0
0.1875 0.375 0
0.25 0.375 0
0.25 0.3125 0
0.3125 0.3125 0
0.25 0.375 0
0.3125 0.375 0
0.625 0.4375 0
0.6875 0.4375 0
0.625 0.5 0
0.6875 0.5 0
0.6875 0.4375 0
0.75 0.4375 0
0.6875 0.5 0
0.75 0.5 0
0.75 0.4375 0
0.8125 0.4375 0
0.75 0.5 0
0.8125 0.5 0
1.1875 0 0
1.25 0 0
1.1875 0.0625 0
1.25 0.0625 0
1.25 0 0
1.3125 0 0
1.25 0.0625 0
1.3125 0.0625 0
1.3125 0 0
1.375 0 0
1.3125 0.0625 0
1.375 0.0625 0
1.375 0 0
1.4375 0 0
1.375 0.0625 0
1.4375 0.0625 0
1.4375 0 0
1.5 0 0
1.4375 0.0625 0
1.5 0.0625 0
1.3125 0.3125 0
1.375 0.3125 0
1.3125 0.375 0
1.375 0.375 0
1.5 0 0
1.5625 0 0
1.5 0.0625 0
1.5625 0.0625 0
1.5625 0 0
1.625 0 0
1.5625 0.0625 0
1.625 0.0625 0
1.5625 0.0625 0
1.625 0.0625 0
1.5625 0.125 0
1.625 0.125 0
1.75 0.125 0
1.8125 0.125 0
1.75 0.1875 0
1.8125 0.1875 0
1.8125 0.125 0
1.875 0.125 0
1.8125 0.1875 0
1.875 0.1875 0
0.125 0.625 0
0.1875 0.625 0
0.125 0.6875 0
0.1875 0.6875 0
0.1875 0.625 0
0.25 0.625 0
0.1875 0.6875 0
0.25 0.6875 0
0.25 0.625 0
0.3125 0.625 0
0.25 0.6875 0
0.3125 0.6875 0
0.125 0.9375 0
0.1875 0.9375 0
0.125 1 0
0.1875 1 0
0.1875 0.9375 0
0.25 0.9375 0
0.1875 1 0
0.25 1 0
0.25 0.9375 0
0.3125 0.9375 0
0.25 1 0
0.3125 1 0
0.3125 0.9375 0
0.375 0.9375 0
0.3125 1 0
0.375 1 0
0.4375 0.875 0
0.5 0.875 0
0.4375 0.9375 0
0.5 0.9375 0
0.375 0.9375 0
0.4375 0.9375 0
0.375 1 0
0.4375 1 0
0.625 0.5 0
0.6875 0.5 0
0.625 0.5625 0
0.6875 0.5625 0
0.6875 0.5 0
0.75 0.5 0
0.6875 0.5625 0
0.75 0.5625 0
0.75 0.5 0
0.8125 0.5 0
0.75 0.5625 0
0.8125 0.5625 0
1.3125 0.625 0
1.375 0.625 0
1.3125 0.6875 0
1.375 0.6875 0
1.1875 0.9375 0
1.25 0.9375 0
1.1875 1 0
1.25 1 0
1.25 0.9375 0
1.3125 0.9375 0
1.25 1 0
1.3125 1 0
1.3125 0.9375 0
1.375 0.9375 0
1.3125 1 0
1.375 1 0
1.375 0.9375 0
1.4375 0.9375 0
1.375 1 0
1.4375 1 0
1.4375 0.9375 0
1.5 0.9375 0
1.4375 1 0
1.5 1 0
1.5625 0.875 0
1.625 0.875 0
1.5625 0.9375 0
1.625 0.9375 0
1.5 0.9375 0
1.5625 0.9375 0
1.5 1 0
1.5625 1 0
1.5625 0.9375 0
1.625 0.9375 0
1.5625 1 0
1.625 1 0
1.75 0.8125 0
1.8125 0.8125 0
1.75 0.875 0
1.8125 0.875 0
1.8125 0.8125 0
1.875 0.8125 0
1.8125 0.875 0
1.875 0.875 0
0 0 0
0.0625 0 0
0 0.0625 0
0.0625 0.0625 0
0.0625 0 0
0.125 0 0
0.0625 0.0625 0
0.125 0.0625 0
0 0.0625 0
0.0625 0.0625 0
0 0.125 0
0.0625 0.125 0
0.0625 0.0625 0
0.125 0.0625 0
0.0625 0.125 0
0.125 0.125 0
0 0.375 0
0.0625 0.375 0
0 0.4375 0
0.0625 0.4375 0
0.0625 0.375 0
0.125 0.375 0
0.0625 0.4375 0
0.125 0.4375 0
0 0.4375 0
0.0625 0.4375 0
0 0.5 0
0.0625 0.5 0
0.0625 0.4375 0
0.125 0.4375 0
0.0625 0.5 0
0.125 0.5 0
0.25 0.375 0
0.3125 0.375 0
0.25 0.4375 0
0.3125 0.4375 0
0.3125 0.375 0
0.375 0.375 0
0.3125 0.4375 0
0.375 0.4375 0
0.25 0.4375 0
0.3125 0.4375 0
0.25 0.5 0
0.3125 0.5 0
0.3125 0.4375 0
0.375 0.4375 0
0.3125 0.5 0
0.375 0.5 0
0.375 0.375 0
0.4375 0.375 0
0.375 0.4375 0
0.4375 0.4375 0
0.4375 0.375 0
0.5 0.375 0
0.4375 0.4375 0
0.5 0.4375 0
0.375 0.4375 0
0.4375 0.4375 0
0.375 0.5 0
0.4375 0.5 0
0.4375 0.4375 0
0.5 0.4375 0
0.4375 0.5 0
0.5 0.5 0
0.5 0.375 0
0.5625 0.375 0
0.5 0.4375 0
0.5625 0.4375 0
0.5625 0.375 0
0.625 0.375 0
0.5625 0.4375 0
0.625 0.4375 0
0.5 0.4375 0
0.5625 0.4375 0
0.5 0.5 0
0.5625 0.5 0
0.5625 0.4375 0
0.625 0.4375 0
0.5625 0.5 0
0.625 0.5 0
1.625 0 0
1.6875 0 0
1.625 0.0625 0
1.6875 0.0625 0
1.6875 0 0
1.75 0 0
1.6875 0.0625 0
1.75 0.0625 0
1.625 0.0625 0
1.6875 0.0625 0
1.625 0.125 0
1.6875 0.125 0
1.6875 0.0625 0
1.75 0.0625 0
1.6875 0.125 0
1.75 0.125 0
1.875 0.125 0
1.9375 0.125 0
1.875 0.1875 0
1.9375 0.1875 0
1.9375 0.125 0
2 0.125 0
1.9375 0.1875 0
2 0.1875 0
1.875 0.1875 0
1.9375 0.1875 0
1.875 0.25 0
1.9375 0.25 0
1.9375 0.1875 0
2 0.1875 0
1.9375 0.25 0
2 0.25 0
0 0.5 0
0.0625 0.5 0
0 0.5625 0
0.0625 0.5625 0
0.0625 0.5 0
0.125 0.5 0
0.0625 0.5625 0
0.125 0.5625 0
0 0.5625 0
0.0625 0.5625 0
0 0.625 0
0.0625 0.625 0
0.0625 0.5625 0
0.125 0.5625 0
0.0625 0.625 0
0.125 0.625 0
0.25 0.5 0
0.3125 0.5 0
0.25 0.5625 0
0.3125 0.5625 0
0.3125 0.5 0
0.375 0.5 0
0.3125 0.5625 0
0.375 0.5625 0
0.25 0.5625 0
0.3125 0.5625 0
0.25 0.625 0
0.3125 0.625 0
0.3125 0.5625 0
0.375 0.5625 0
0.3125 0.625 0
0.375 0.625 0
0.375 0.5 0
0.4375 0.5 0
0.375 0.5625 0
0.4375 0.5625 0
0.4375 0.5 0
0.5 0.5 0
0.4375 0.5625 0
0.5 0.5625 0
0.375 0.5625 0
0.4375 0.5625 0
0.375 0.625 0
0.4375 0.625 0
0.4375 0.5625 0
0.5 0.5625 0
0.4375 0.625 0
0.5 0.625 0
0 0.875 0
0.0625 0.875 0
0 0.9375 0
0.0625 0.9375 0
0.0625 0.875 0
0.125 0.875 0
0.0625 0.9375 0
0.125 0.9375 0
0 0.9375 0
0.0625 0.9375 0
0 1 0
0.0625 1 0
0.0625 0.9375 0
0.125 0.9375 0
0.0625 1 0
0.125 1 0
0.5 0.5 0
0.5625 0.5 0
0.5 0.5625 0
0.5625 0.5625 0
0.5625 0.5 0
0.625 0.5 0
0.5625 0.5625 0
0.625 0.5625 0
0.5 0.5625 0
0.5625 0.5625 0
0.5 0.625 0
0.5625 0.625 0
0.5625 0.5625 0
0.625 0.5625 0
0.5625 0.625 0
0.625 0.625 0
1.625 0.875 0
1.6875 0.875 0
1.625 0.9375 0
1.6875 0.9375 0
1.6875 0.875 0
1.75 0.875 0
1.6875 0.9375 0
1.75 0.9375 0
1.625 0.9375 0
1.6875 0.9375 0
1.625 1 0
1.6875 1 0
1.6875 0.9375 0
1.75 0.9375 0
1.6875 1 0
1.75 1 0
1.875 0.75 0
1.9375 0.75 0
1.875 0.8125 0
1.9375 0.8125 0
1.9375 0.75 0
2 0.75 0
1.9375 0.8125 0
2 0.8125 0
1.875 0.8125 0
1.9375 0.8125 0
1.875 0.875 0
1.9375 0.875 0
1.9375 0.8125 0
2 0.8125 0
1.9375 0.875 0
2 0.875 0
0.125 0.0625 0
0.15625 0.0625 0
0.125 0.09375 0
0.15625 0.09375 0
0.15625 0.0625 0
0.1875 0.0625 0
0.15625 0.09375 0
0.1875 0.09375 0
0.125 0.09375 0
0.15625 0.09375 0
0.125 0.125 0
0.15625 0.125 0
0.15625 0.09375 0
0.1875 0.09375 0
0.15625 0.125 0
0.1875 0.125 0
0.1875 0.0625 0
0.21875 0.0625 0
0.1875 0.09375 0
0.21875 0.09375 0
0.21875 0.0625 0
0.25 0.0625 0
0.21875 0.09375 0
0.25 0.09375 0
0.1875 0.09375 0
0.21875 0.09375 0
0.1875 0.125 0
0.21875 0.125 0
0.21875 0.09375 0
0.25 0.09375 0
0.21875 0.125 0
0.25 0.125 0
0 0.125 0
0.03125 0.125 0
0 0.15625 0
0.03125 0.15625 0
0.03125 0.125 0
0.0625 0.125 0
0.03125 0.15625 0
0.0625 0.15625 0
0 0.15625 0
0.03125 0.15625 0
0 0.1875 0
0.03125 0.1875 0
0.03125 0.15625 0
0.0625 0.15625 0
0.03125 0.1875 0
0.0625 0.1875 0
0.0625 0.125 0
0.09375 0.125 0
0.0625 0.15625 0
0.09375 0.15625 0
0.09375 0.125 0
0.125 0.125 0
0.09375 0.15625 0
0.125 0.15625 0
0.0625 0.15625 0
0.09375 0.15625 0
0.0625 0.1875 0
0.09375 0.1875 0
0.09375 0.15625 0
0.125 0.15625 0
0.09375 0.1875 0
0.125 0.1875 0
0 0.1875 0
0.03125 0.1875 0
0 0.21875 0
0.03125 0.21875 0
0.03125 0.1875 0
0.0625 0.1875 0
0.03125 0.21875 0
0.0625 0.21875 0
0 0.21875 0
0.03125 0.21875 0
0 0.25 0
0.03125 0.25 0
0.03125 0.21875 0
0.0625 0.21875 0
0.03125 0.25 0
0.0625 0.25 0
0.0625 0.1875 0
0.09375 0.1875 0
0.0625 0.21875 0
0.09375 0.21875 0
0.09375 0.1875 0
0.125 0.1875 0
0.09375 0.21875 0
0.125 0.21875 0
0.0625 0.21875 0
0.09375 0.21875 0
0.0625 0.25 0
0.09375 0.25 0
0.09375 0.21875 0
0.125 0.21875 0
0.09375 0.25 0
0.125 0.25 0
0.125 0.125 0
0.15625 0.125 0
0.125 0.15625 0
0.15625 0.15625 0
0.15625 0.125 0
0.1875 0.125 0
0.15625 0.15625 0
0.1875 0.15625 0
0.125 0.15625 0
0.15625 0.15625 0
0.125 0.1875 0
0.15625 0.1875 0
0.15625 0.15625 0
0.1875 0.15625 0
0.15625 0.1875 0
0.1875 0.1875 0
0.1875 0.125 0
0.21875 0.125 0
0.1875 0.15625 0
0.21875 0.15625 0
0.21875 0.125 0
0.25 0.125 0
0.21875 0.15625 0
0.25 0.15625 0
0.1875 0.15625 0
0.21875 0.15625 0
0.1875 0.1875 0
0.21875 0.1875 0
0.21875 0.15625 0
0.25 0.15625 0
0.21875 0.1875 0
0.25 0.1875 0
0.125 0.1875 0
0.15625 0.1875 0
0.125 0.21875 0
0.15625 0.21875 0
0.15625 0.1875 0
0.1875 0.1875 0
0.15625 0.21875 0
0.1875 0.21875 0
0.125 0.21875 0
0.15625 0.21875 0
0.125 0.25 0
0.15625 0.25 0
0.15625 0.21875 0
0.1875 0.21875 0
0.15625 0.25 0
0.1875 0.25 0
0.1875 0.1875 0
0.21875 0.1875 0
0.1875 0.21875 0
0.21875 0.21875 0
0.21875 0.1875 0
0.25 0.1875 0
0.21875 0.21875 0
0.25 0.21875 0
0.1875 0.21875 0
0.21875 0.21875 0
0.1875 0.25 0
0.21875 0.25 0
0.21875 0.21875 0
0.25 0.21875 0
0.21875 0.25 0
0.25 0.25 0
0.25 0.0625 0
0.28125 0.0625 0
0.25 0.09375 0
0.28125 0.09375 0
0.28125 0.0625 0
0.3125 0.0625 0
0.28125 0.09375 0
0.3125 0.09375 0
0.25 0.09375 0
0.28125 0.09375 0
0.25 0.125 0
0.28125 0.125 0
0.28125 0.09375 0
0.3125 0.09375 0
0.28125 0.125 0
0.3125 0.125 0
0.3125 0.0625 0
0.34375 0.0625 0
0.3125 0.09375 0
0.34375 0.09375 0
0.34375 0.0625 0
0.375 0.0625 0
0.34375 0.09375 0
0.375 0.09375 0
0.3125 0.09375 0
0.34375 0.09375 0
0.3125 0.125 0
0.34375 0.125 0
0.34375 0.09375 0
0.375 0.09375 0
0.34375 0.125 0
0.375 0.125 0
0.4375 0 0
0.46875 0 0
0.4375 0.03125 0
0.46875 0.03125 0
0.46875 0 0
0.5 0 0
0.46875 0.03125 0
0.5 0.03125 0
0.4375 0.03125 0
0.46875 0.03125 0
0.4375 0.0625 0
0.46875 0.0625 0
0.46875 0.03125 0
0.5 0.03125 0
0.46875 0.0625 0
0.5 0.0625 0
0.375 0.0625 0
0.40625 0.0625 0
0.375 0.09375 0
0.40625 0.09375 0
0.40625 0.0625 0
0.4375 0.0625 0
0.40625 0.09375 0
0.4375 0.09375 0
0.375 0.09375 0
0.40625 0.09375 0
0.375 0.125 0
0.40625 0.125 0
0.40625 0.09375 0
0.4375 0.09375 0
0.40625 0.125 0
0.4375 0.125 0
0.25 0.125 0
0.28125 0.125 0
0.25 0.15625 0
0.28125 0.15625 0
0.28125 0.125 0
0.3125 0.125 0
0.28125 0.15625 0
0.3125 0.15625 0
0.25 0.15625 0
0.28125 0.15625 0
0.25 0.1875 0
0.28125 0.1875 0
0.28125 0.15625 0
0.3125 0.15625 0
0.28125 0.1875 0
0.3125 0.1875 0
0.3125 0.125 0
0.34375 0.125 0
0.3125 0.15625 0
0.34375 0.15625 0
0.34375 0.125 0
0.375 0.125 0
0.34375 0.15625 0
0.375 0.15625 0
[...]
POINT_DATA 6608
SCALARS x_displacement double 1
LOOKUP_TABLE default
-0.906108 -1.42579 -1.1567e-09 -1.38278e-09 26.9449 27.0891 19.9624 20.4927 27.0891 27.0235 20.4927 21.1394 -1.1567e-09 -1.38278e-09 0.906108 1.42579 -19.9624 -20.4927 -26.9449 -27.0891 -20.4927 -21.1394 -27.0891 -27.0235 4.1476 5.78627 2.1816 3.2172 5.78627 7.08428 3.2172 4.12561 7.08428 8.02507 4.12561 4.92046 8.02507 8.68295 4.92046 5.60544 8.68295 9.15455 5.60544 6.19069 6.19069 6.72506 3.48017 4.16186 -1.86195 -2.12214 -0.906108 -1.16595 -2.12214 -2.96939 -1.16595 -1.42579 -2.96939 -4.86023 -1.42579 -2.0542 -6.30788 -3.05138 -1.33295e-09 -1.76514e-10 -3.05138 -2.03924 -1.76514e-10 1.84911e-10 -2.03924 -2.88091 1.84911e-10 9.65204e-11 16.4422 17.4258 13.5292 14.5626 17.4258 18.3874 14.5626 15.8493 18.3874 19.5957 15.8493 16.9352 19.5957 20.9431 16.9352 17.9248 20.9431 22.4037 17.9248 18.9907 5.85857 6.3976 3.497 3.86004 22.4037 23.8447 18.9907 20.1287 23.8447 25.0862 20.1287 21.3205 20.1287 21.3205 16.7115 17.5572 19.9624 20.2276 16.7918 17.5116 20.2276 20.4927 17.5116 19.3263 0.906108 1.16595 1.86195 2.12214 1.16595 1.42579 2.12214 2.96939 1.42579 2.0542 2.96939 4.86023 -2.1816 -3.2172 -4.1476 -5.78627 -3.2172 -4.12561 -5.78627 -7.08428 -4.12561 -4.92046 -7.08428 -8.02507 -4.92046 -5.60544 -8.02507 -8.68295 -3.48017 -4.16186 -6.19069 -6.72506 -5.60544 -6.19069 -8.68295 -9.15455 -1.33295e-09 -1.76514e-10 6.30788 3.05138 -1.76514e-10 1.84911e-10 3.05138 2.03924 1.84911e-10 9.65204e-11 2.03924 2.88091 -3.497 -3.86004 -5.85857 -6.3976 -13.5292 -14.5626 -16.4422 -17.4258 -14.5626 -15.8493 -17.4258 -18.3874 -15.8493 -16.9352 -18.3874 -19.5957 -16.9352 -17.9248 -19.5957 -20.9431 -17.9248 -18.9907 -20.9431 -22.4037 -16.7115 -17.5572 -20.1287 -21.3205 -18.9907 -20.1287 -22.4037 -23.8447 -20.1287 -21.3205 -23.8447 -25.0862 -16.7918 -17.5116 -19.9624 -20.2276 -17.5116 -19.3263 -20.2276 -20.4927 0 2.22543 0 1.04262 2.22543 4.1476 1.04262 2.1816 0 1.04262 0 0.207712 1.04262 2.1816 0.207712 0.501459 0 -0.354376 0 -0.215441 -0.354376 -0.906108 -0.215441 -0.453054 0 -0.215441 0 -5.17161e-10 -0.215441 -0.453054 -5.17161e-10 -1.1567e-09 -1.42579 -2.0542 -0.712896 -1.06861 -2.0542 -2.68509 -1.06861 -1.26223 -0.712896 -1.06861 -1.38278e-09 -1.26244e-09 -1.06861 -1.26223 -1.26244e-09 -1.1451e-09 -2.68509 -3.08647 -1.26223 -1.76879 -3.08647 -3.46986 -1.76879 -3.0444 -1.26223 -1.76879 -1.1451e-09 -1.16809e-09 -1.76879 -3.0444 -1.16809e-09 -1.09221e-09 -3.46986 -3.75795 -3.0444 -6.00583 -3.75795 -3.67256 -6.00583 -6.30788 -3.0444 -6.00583 -1.09221e-09 -5.97021e-10 -6.00583 -6.30788 -5.97021e-10 -1.33295e-09 25.0862 26.1499 21.3205 22.394 26.1499 26.9449 22.394 23.4537 21.3205 22.394 17.5572 18.8666 22.394 23.4537 18.8666 19.9624 20.4927 20.816 19.3263 18.8903 20.816 21.1394 18.8903 18.4658 19.3263 18.8903 15.1508 15.2814 18.8903 18.4658 15.2814 15.1119 0 -5.17161e-10 0 0.215441 -5.17161e-10 -1.1567e-09 0.215441 0.453054 0 0.215441 0 0.354376 0.215441 0.453054 0.354376 0.906108 -1.38278e-09 -1.26244e-09 0.712896 1.06861 -1.26244e-09 -1.1451e-09 1.06861 1.26223 0.712896 1.06861 1.42579 2.0542 1.06861 1.26223 2.0542 2.68509 -1.1451e-09 -1.16809e-09 1.26223 1.76879 -1.16809e-09 -1.09221e-09 1.76879 3.0444 1.26223 1.76879 2.68509 3.08647 1.76879 3.0444 3.08647 3.46986 0 -0.207712 0 -1.04262 -0.207712 -0.501459 -1.04262 -2.1816 0 -1.04262 0 -2.22543 -1.04262 -2.1816 -2.22543 -4.1476 -1.09221e-09 -5.97021e-10 3.0444 6.00583 -5.97021e-10 -1.33295e-09 6.00583 6.30788 3.0444 6.00583 3.46986 3.75795 6.00583 6.30788 3.75795 3.67256 -17.5572 -18.8666 -21.3205 -22.394 -18.8666 -19.9624 -22.394 -23.4537 -21.3205 -22.394 -25.0862 -26.1499 -22.394 -23.4537 -26.1499 -26.9449 -15.1508 -15.2814 -19.3263 -18.8903 -15.2814 -15.1119 -18.8903 -18.4658 -19.3263 -18.8903 -20.4927 -20.816 -18.8903 -18.4658 -20.816 -21.1394 2.1816 2.6994 1.34153 1.69918 2.6994 3.2172 1.69918 2.04785 1.34153 1.69918 0.501459 0.660918 1.69918 2.04785 0.660918 0.858008 3.2172 3.6714 2.04785 2.40211 3.6714 4.12561 2.40211 2.76054 2.04785 2.40211 0.858008 1.09496 2.40211 2.76054 1.09496 1.3762 0 0.103856 0 -0.0649636 0.103856 0.207712 -0.0649636 -0.168456 0 -0.0649636 0 -0.175981 -0.0649636 -0.168456 -0.175981 -0.419376 0.207712 0.354585 -0.168456 -0.291447 0.354585 0.501459 -0.291447 -0.377044 -0.168456 -0.291447 -0.419376 -0.777111 -0.291447 -0.377044 -0.777111 -1.21092 0 -0.175981 0 -0.233915 -0.175981 -0.419376 -0.233915 -0.52688 0 -0.233915 0 -0.297296 -0.233915 -0.52688 -0.297296 -0.576456 -0.419376 -0.777111 -0.52688 -0.988254 -0.777111 -1.21092 -0.988254 -1.8259 -0.52688 -0.988254 -0.576456 -0.917948 -0.988254 -1.8259 -0.917948 -1.81005 0.501459 0.660918 -0.377044 -0.431696 0.660918 0.858008 -0.431696 -0.400043 -0.377044 -0.431696 -1.21092 -1.53268 -0.431696 -0.400043 -1.53268 -1.69586 0.858008 1.09496 -0.400043 -0.282396 1.09496 1.3762 -0.282396 -0.0757397 -0.400043 -0.282396 -1.69586 -1.70323 -0.282396 -0.0757397 -1.70323 -1.56892 -1.21092 -1.53268 -1.8259 -2.60244 -1.53268 -1.69586 -2.60244 -2.99281 -1.8259 -2.60244 -1.81005 -3.53416 -2.60244 -2.99281 -3.53416 -4.23349 -1.69586 -1.70323 -2.99281 -3.13529 -1.70323 -1.56892 -3.13529 -3.0721 -2.99281 -3.13529 -4.23349 -4.53526 -3.13529 -3.0721 -4.53526 -4.53388 4.12561 4.52304 2.76054 3.12226 4.52304 4.92046 3.12226 3.47862 2.76054 3.12226 1.3762 1.69711 3.12226 3.47862 1.69711 2.04825 4.92046 5.26295 3.47862 3.82781 5.26295 5.60544 3.82781 4.16344 3.47862 3.82781 2.04825 2.41257 3.82781 4.16344 2.41257 2.77943 9.15455 9.34869 7.67262 7.87595 9.34869 9.48771 7.87595 8.05604 7.67262 7.87595 6.19069 6.45787 7.87595 8.05604 6.45787 6.72506 5.60544 5.89806 4.16344 4.49999 5.89806 6.19069 4.49999 4.83543 4.16344 4.49999 2.77943 3.13662 4.49999 4.83543 3.13662 3.48017 1.3762 1.69711 -0.0757397 0.219976 1.69711 2.04825 0.219976 0.598766 -0.0757397 0.219976 -1.56892 -1.28398 0.219976 0.598766 -1.28398 -0.820318 2.04825 2.41257 0.598766 1.0392 2.41257 2.77943 1.0392 1.47102 0.598766 1.0392 -0.820318 -0.22076 1.0392 1.47102 -0.22076 0.273301 -1.56892 -1.28398 -3.0721 -2.78176 -1.28398 -0.820318 -2.78176 -2.10673 -3.0721 -2.78176 -4.53388 -4.21978 -2.78176 -2.10673 -4.21978 -2.94276 -0.820318 -0.22076 -2.10673 -1.30488 -0.22076 0.273301 -1.30488 -0.889084 -2.10673 -1.30488 -2.94276 -2.3081 -1.30488 -0.889084 -2.3081 -2.12395 2.77943 3.13662 1.47102 1.84789 3.13662 3.48017 1.84789 2.19028 1.47102 1.84789 0.273301 0.615624 1.84789 2.19028 0.615624 0.903177 3.48017 3.82102 2.19028 2.52894 3.82102 4.16186 2.52894 2.87266 2.19028 2.52894 0.903177 1.20705 2.52894 2.87266 1.20705 1.5454 0.273301 0.615624 -0.889084 -0.648685 0.615624 0.903177 -0.648685 -0.43007 -0.889084 -0.648685 -2.12395 -1.97794 -0.648685 -0.43007 -1.97794 -1.81319 0.903177 1.20705 -0.43007 -0.167249 1.20705 1.5454 -0.167249 0.165144 -0.43007 -0.167249 -1.81319 -1.57717 -0.167249 0.165144 -1.57717 -1.24466 0 -0.297296 0 -0.420181 -0.297296 -0.576456 -0.420181 -0.654597 0 -0.420181 0 -0.592055 -0.420181 -0.654597 -0.592055 -0.715393 -0.576456 -0.917948 -0.654597 -0.810542 -0.917948 -1.81005 -0.810542 -0.48835 -0.654597 -0.810542 -0.715393 -0.938792 -0.810542 -0.48835 -0.938792 -1.86195 0 -0.592055 0 -0.171568 -0.592055 -0.715393 -0.171568 -0.441176 0 -0.171568 0 -0.177188 -0.171568 -0.441176 -0.177188 -0.354376 -0.715393 -0.938792 -0.441176 -0.854862 -0.938792 -1.86195 -0.854862 -1.38403 -0.441176 -0.854862 -0.354376 -0.630242 -0.854862 -1.38403 -0.630242 -0.906108 -1.81005 -3.53416 -0.48835 -0.567112 -3.53416 -4.23349 -0.567112 -2.05017 -0.48835 -0.567112 -1.86195 -1.99205 -0.567112 -2.05017 -1.99205 -2.12214 -4.23349 -4.53526 -2.05017 -2.98584 -4.53526 -4.53388 -2.98584 -3.37587 -2.05017 -2.98584 -2.12214 -2.54577 -2.98584 -3.37587 -2.54577 -2.96939 -4.53388 -4.21978 -3.37587 -3.36921 -4.21978 -2.94276 -3.36921 -2.91304 -3.37587 -3.36921 -2.96939 -3.91481 -3.36921 -2.91304 -3.91481 -4.86023 -2.94276 -2.3081 -2.91304 -3.47525 -2.3081 -2.12395 -3.47525 -3.44635 -2.91304 -3.47525 -4.86023 -4.88775 -3.47525 -3.44635 -4.88775 -4.81218 -4.86023 -4.88775 -3.45722 -3.5448 -4.88775 -4.81218 -3.5448 -3.63571 -3.45722 -3.5448 -2.0542 -2.36965 -3.5448 -3.63571 -2.36965 -2.68509 -2.12395 -1.97794 -3.44635 -3.35913 -1.97794 -1.81319 -3.35913 -3.22566 -3.44635 -3.35913 -4.81218 -4.75642 -3.35913 -3.22566 -4.75642 -4.64107 -1.81319 -1.57717 -3.22566 -3.00048 -1.57717 -1.24466 -3.00048 -2.66041 -3.22566 -3.00048 -4.64107 -4.4104 -3.00048 -2.66041 -4.4104 -4.0436 -4.81218 -4.75642 -3.63571 -3.72896 -4.75642 -4.64107 -3.72896 -3.77741 -3.63571 -3.72896 -2.68509 -2.88578 -3.72896 -3.77741 -2.88578 -3.08647 -4.64107 -4.4104 -3.77741 -3.74212 -4.4104 -4.0436 -3.74212 -3.52491 -3.77741 -3.74212 -3.08647 -3.27817 -3.74212 -3.52491 -3.27817 -3.46986 9.48771 9.593 8.05604 8.21485 9.593 9.68839 8.21485 8.36854 8.05604 8.21485 6.72506 6.95201 8.21485 8.36854 6.95201 7.19018 9.68839 9.78904 8.36854 8.54897 9.78904 9.91541 8.54897 8.81723 8.36854 8.54897 7.19018 7.47235 8.54897 8.81723 7.47235 7.8346 6.72506 6.95201 5.44346 5.73269 6.95201 7.19018 5.73269 6.03264 5.44346 5.73269 4.16186 4.49424 5.73269 6.03264 4.49424 4.82531 7.19018 7.47235 6.03264 6.35648 7.47235 7.8346 6.35648 6.71052 6.03264 6.35648 4.82531 5.15941 6.35648 6.71052 5.15941 5.49838 9.91541 10.156 8.81723 9.28298 10.156 10.8731 9.28298 9.88698 8.81723 9.28298 7.8346 8.27052 9.28298 9.88698 8.27052 8.7116 10.8731 11.6209 9.88698 10.3484 11.6209 11.9155 10.3484 10.6201 9.88698 10.3484 8.7116 9.06834 10.3484 10.6201 9.06834 9.32784 7.8346 8.27052 6.71052 7.08392 8.27052 8.7116 7.08392 7.45106 6.71052 7.08392 5.49838 5.843 7.08392 7.45106 5.843 6.18421 8.7116 9.06834 7.45106 7.7776 9.06834 9.32784 7.7776 8.04868 7.45106 7.7776 6.18421 6.51015 7.7776 8.04868 6.51015 6.80871 4.16186 4.49424 2.87266 3.22292 4.49424 4.82531 3.22292 3.57273 2.87266 3.22292 1.5454 1.91051 3.22292 3.57273 1.91051 2.29108 4.82531 5.15941 3.57273 3.91947 5.15941 5.49838 3.91947 4.26373 3.57273 3.91947 2.29108 2.67345 3.91947 4.26373 2.67345 3.0489 1.5454 1.91051 0.165144 0.556881 1.91051 2.29108 0.556881 0.99728 0.165144 0.556881 -1.24466 -0.81133 0.556881 0.99728 -0.81133 -0.256458 2.29108 2.67345 0.99728 1.46667 2.67345 3.0489 1.46667 1.90378 0.99728 1.46667 -0.256458 0.372796 1.46667 1.90378 0.372796 0.858729 5.49838 5.843 4.26373 4.60855 5.843 6.18421 4.60855 4.9531 4.26373 4.60855 3.0489 3.41112 4.60855 4.9531 3.41112 3.76475 6.18421 6.51015 4.9531 5.29231 6.51015 6.80871 5.29231 5.6218 4.9531 5.29231 3.76475 4.11316 5.29231 5.6218 4.11316 4.45864 3.0489 3.41112 1.90378 2.27592 3.41112 3.76475 2.27592 2.61007 1.90378 2.27592 0.858729 1.18546 2.27592 2.61007 1.18546 1.45698 3.76475 4.11316 2.61007 2.94273 4.11316 4.45864 2.94273 3.28323 2.61007 2.94273 1.45698 1.74412 2.94273 3.28323 1.74412 2.06578 11.9155 12.0789 10.6201 10.7899 12.0789 12.1865 10.7899 10.9178 10.6201 10.7899 9.32784 9.51882 10.7899 10.9178 9.51882 9.68129 12.1865 12.265 10.9178 11.0212 12.265 12.3071 11.0212 11.1029 10.9178 11.0212 9.68129 9.84235 11.0212 11.1029 9.84235 10.0388 9.32784 9.51882 8.04868 8.27605 9.51882 9.68129 8.27605 8.49085 8.04868 8.27605 6.80871 7.08383 8.27605 8.49085 7.08383 7.36439 9.68129 9.84235 8.49085 8.73501 9.84235 10.0388 8.73501 9.0688 8.49085 8.73501 7.36439 7.68531 8.73501 9.0688 7.68531 8.08073 12.3071 12.4886 11.1029 11.0426 12.4886 13.234 11.0426 10.3525 11.1029 11.0426 10.0388 10.3938 11.0426 10.3525 10.3938 11.1726 13.234 13.3559 10.3525 11.8711 13.3559 13.7375 11.8711 12.6964 10.3525 11.8711 11.1726 11.8441 11.8711 12.6964 11.8441 12.1364 10.0388 10.3938 9.0688 9.57788 10.3938 11.1726 9.57788 10.1702 9.0688 9.57788 8.08073 8.53942 9.57788 10.1702 8.53942 8.9942 11.1726 11.8441 10.1702 10.6166 11.8441 12.1364 10.6166 10.8931 10.1702 10.6166 8.9942 9.36345 10.6166 10.8931 9.36345 9.63997 6.80871 7.08383 5.6218 5.94306 7.08383 7.36439 5.94306 6.27231 5.6218 5.94306 4.45864 4.80325 5.94306 6.27231 4.80325 5.14908 7.36439 7.68531 6.27231 6.62345 7.68531 8.08073 6.62345 7.00147 6.27231 6.62345 5.14908 5.49889 6.62345 7.00147 5.49889 5.85219 4.45864 4.80325 3.28323 3.63162 4.80325 5.14908 3.63162 3.98365 3.28323 3.63162 2.06578 2.41628 3.63162 3.98365 2.41628 2.78575 5.14908 5.49889 3.98365 4.33489 5.49889 5.85219 4.33489 4.68455 3.98365 4.33489 2.78575 3.16168 4.33489 4.68455 3.16168 3.53457 8.08073 8.53942 7.00147 7.39374 8.53942 8.9942 7.39374 7.77518 7.00147 7.39374 5.85219 6.20862 7.39374 7.77518 6.20862 6.559 8.9942 9.36345 7.77518 8.11465 9.36345 9.63997 8.11465 8.40135 7.77518 8.11465 6.559 6.89249 8.11465 8.40135 6.89249 7.19849 5.85219 6.20862 4.68455 5.03403 6.20862 6.559 5.03403 5.38177 4.68455 5.03403 3.53457 3.89682 5.03403 5.38177 3.89682 4.25096 6.559 6.89249 5.38177 5.72236 6.89249 7.19849 5.72236 6.05059 5.38177 5.72236 4.25096 4.59817 5.72236 6.05059 4.59817 4.93958 -1.24466 -0.81133 -2.66041 -2.16863 -0.81133 -0.256458 -2.16863 -1.37337 -2.66041 -2.16863 -4.0436 -3.47513 -2.16863 -1.37337 -3.47513 -2.05088 -0.256458 0.372796 -1.37337 -0.557749 0.372796 0.858729 -0.557749 -0.161663 -1.37337 -0.557749 -2.05088 -1.42268 -0.557749 -0.161663 -1.42268 -1.25923 -4.0436 -3.47513 -3.52491 -3.01754 -3.47513 -2.05088 -3.01754 -1.87331 -3.52491 -3.01754 -3.46986 -3.61391 -3.01754 -1.87331 -3.61391 -3.75795 -2.05088 -1.42268 -1.87331 -2.46248 -1.42268 -1.25923 -2.46248 -2.4454 -1.87331 -2.46248 -3.75795 -3.71525 -2.46248 -2.4454 -3.71525 -3.67256 0.858729 1.18546 -0.161663 0.0586376 1.18546 1.45698 0.0586376 0.255801 -0.161663 0.0586376 -1.25923 -1.13423 0.0586376 0.255801 -1.13423 -0.995148 1.45698 1.74412 0.255801 0.49256 1.74412 2.06578 0.49256 0.79432 0.255801 0.49256 -0.995148 -0.794915 0.49256 0.79432 -0.794915 -0.507918 -1.25923 -1.13423 -2.4454 -2.37915 -1.13423 -0.995148 -2.37915 -2.27508 -2.4454 -2.37915 -3.67256 -3.64396 -2.37915 -2.27508 -3.64396 -3.56104 -0.995148 -0.794915 -2.27508 -2.09663 -0.794915 -0.507918 -2.09663 -1.81788 -2.27508 -2.09663 -3.56104 -3.38828 -2.09663 -1.81788 -3.38828 -3.10073 -3.67256 -3.64396 -4.99022 -4.30392 -3.64396 -3.56104 -4.30392 -3.68187 -4.99022 -4.30392 -6.30788 -4.67963 -4.30392 -3.68187 -4.67963 -3.05138 -3.56104 -3.38828 -3.68187 -3.0578 -3.38828 -3.10073 -3.0578 -2.6156 -3.68187 -3.0578 -3.05138 -2.54531 -3.0578 -2.6156 -2.54531 -2.03924 2.06578 2.41628 0.79432 1.15528 2.41628 2.78575 1.15528 1.56833 0.79432 1.15528 -0.507918 -0.124081 1.15528 1.56833 -0.124081 0.379918 2.78575 3.16168 1.56833 2.01674 3.16168 3.53457 2.01674 2.44523 1.56833 2.01674 0.379918 0.969169 2.01674 2.44523 0.969169 1.4525 -0.507918 -0.124081 -1.81788 -1.39656 -0.124081 0.379918 -1.39656 -0.694082 -1.81788 -1.39656 -3.10073 -2.62333 -1.39656 -0.694082 -2.62333 -1.37803 0.379918 0.969169 -0.694082 0.0797549 0.969169 1.4525 0.0797549 0.498104 -0.694082 0.0797549 -1.37803 -0.710399 0.0797549 0.498104 -0.710399 -0.52411 3.53457 3.89682 2.44523 2.82042 3.89682 4.25096 2.82042 3.15997 2.44523 2.82042 1.4525 1.79394 2.82042 3.15997 1.79394 2.07784 4.25096 4.59817 3.15997 3.49363 4.59817 4.93958 3.49363 3.83071 3.15997 3.49363 2.07784 2.3691 3.49363 3.83071 2.3691 2.68764 1.4525 1.79394 0.498104 0.738075 1.79394 2.07784 0.738075 0.948859 0.498104 0.738075 -0.52411 -0.384998 0.738075 0.948859 -0.384998 -0.234004 2.07784 2.3691 0.948859 1.19123 2.3691 2.68764 1.19123 1.49073 0.948859 1.19123 -0.234004 -0.0268623 1.19123 1.49073 -0.0268623 0.259987 -3.10073 -2.62333 -2.6156 -2.01622 -2.62333 -1.37803 -2.01622 -1.00966 -2.6156 -2.01622 -2.03924 -2.46008 -2.01622 -1.00966 -2.46008 -2.88091 -1.37803 -0.710399 -1.00966 -1.65179 -0.710399 -0.52411 -1.65179 -1.63935 -1.00966 -1.65179 -2.88091 -2.8833 -1.65179 -1.63935 -2.8833 -2.80688 -2.88091 -2.8833 -1.44045 -1.4182 -2.8833 -2.80688 -1.4182 -1.39604 -1.44045 -1.4182 9.65204e-11 1.04174e-10 -1.4182 -1.39604 1.04174e-10 5.09084e-11 -0.52411 -0.384998 -1.63935 -1.56436 -0.384998 -0.234004 -1.56436 -1.45052 -1.63935 -1.56436 -2.80688 -2.76521 -1.56436 -1.45052 -2.76521 -2.67316 -0.234004 -0.0268623 -1.45052 -1.26372 -0.0268623 0.259987 -1.26372 -0.981358 -1.45052 -1.26372 -2.67316 -2.49311 -1.26372 -0.981358 -2.49311 -2.19604 -2.80688 -2.76521 -1.39604 -1.35819 -2.76521 -2.67316 -1.35819 -1.29466 -1.39604 -1.35819 5.09084e-11 -3.86753e-11 -1.35819 -1.29466 -3.86753e-11 -8.7489e-11 -2.67316 -2.49311 -1.29466 -1.18408 -2.49311 -2.19604 -1.18408 -0.987844 -1.29466 -1.18408 -8.7489e-11 5.36699e-11 -1.18408 -0.987844 5.36699e-11 -2.99771e-11 13.7375 14.2194 12.6964 13.1635 14.2194 14.6474 13.1635 13.4839 12.6964 13.1635 12.1364 12.3021 13.1635 13.4839 12.3021 12.4013 14.6474 15.0527 13.4839 13.7566 15.0527 15.51 13.7566 14.0554 13.4839 13.7566 12.4013 12.4521 13.7566 14.0554 12.4521 12.47 12.1364 12.3021 10.8931 11.0731 12.3021 12.4013 11.0731 11.1942 10.8931 11.0731 9.63997 9.84475 11.0731 11.1942 9.84475 9.99826 12.4013 12.4521 11.1942 11.2716 12.4521 12.47 11.2716 11.3236 11.1942 11.2716 9.99826 10.118 11.2716 11.3236 10.118 10.2354 15.51 15.9755 14.0554 14.5137 15.9755 16.4422 14.5137 14.9857 14.0554 14.5137 12.47 12.541 14.5137 14.9857 12.541 13.5292 12.47 12.541 11.3236 11.3149 12.541 13.5292 11.3149 10.6724 11.3236 11.3149 10.2354 10.4059 11.3149 10.6724 10.4059 11.0339 13.5292 14.0459 10.6724 12.3179 14.0459 14.5626 12.3179 13.3402 10.6724 12.3179 11.0339 12.1031 12.3179 13.3402 12.1031 12.6442 9.63997 9.84475 8.40135 8.63897 9.84475 9.99826 8.63897 8.83805 8.40135 8.63897 7.19849 7.47545 8.63897 8.83805 7.47545 7.73316 9.99826 10.118 8.83805 9.02216 10.118 10.2354 9.02216 9.24201 8.83805 9.02216 7.73316 7.99312 9.02216 9.24201 7.99312 8.30875 7.19849 7.47545 6.05059 6.36562 7.47545 7.73316 6.36562 6.67534 6.05059 6.36562 4.93958 5.27684 6.36562 6.67534 5.27684 5.61228 7.73316 7.99312 6.67534 6.99147 7.99312 8.30875 6.99147 7.3384 6.67534 6.99147 5.61228 5.94923 6.99147 7.3384 5.94923 6.29116 10.2354 10.4059 9.24201 9.62658 10.4059 11.0339 9.62658 10.2968 9.24201 9.62658 8.30875 8.74173 9.62658 10.2968 8.74173 9.26341 11.0339 12.1031 10.2968 10.9361 12.1031 12.6442 10.9361 11.4117 10.2968 10.9361 9.26341 9.74334 10.9361 11.4117 9.74334 10.1676 8.30875 8.74173 7.3384 7.72956 8.74173 9.26341 7.72956 8.1436 7.3384 7.72956 6.29116 6.64249 7.72956 8.1436 6.64249 6.99806 9.26341 9.74334 8.1436 8.54404 9.74334 10.1676 8.54404 8.92651 8.1436 8.54404 6.99806 7.35187 8.54404 8.92651 7.35187 7.6981 14.5626 15.206 13.3402 14.0694 15.206 15.8493 14.0694 14.6476 13.3402 14.0694 12.6442 13.1134 14.0694 14.6476 13.1134 13.5563 15.8493 16.3923 14.6476 15.161 16.3923 16.9352 15.161 15.6158 14.6476 15.161 13.5563 13.9822 15.161 15.6158 13.9822 14.3751 16.9352 17.43 15.6158 16.0314 17.43 17.9248 16.0314 16.4036 15.6158 16.0314 14.3751 14.7126 16.0314 16.4036 14.7126 14.9786 17.9248 18.4577 16.4036 16.7645 18.4577 18.9907 16.7645 17.176 16.4036 16.7645 14.9786 15.1322 16.7645 17.176 15.1322 15.2166 12.6442 13.1134 11.4117 11.8406 13.1134 13.5563 11.8406 12.2546 11.4117 11.8406 10.1676 10.5658 11.8406 12.2546 10.5658 10.9515 13.5563 13.9822 12.2546 12.6556 13.9822 14.3751 12.6556 13.0302 12.2546 12.6556 10.9515 11.3257 12.6556 13.0302 11.3257 11.6785 10.1676 10.5658 8.92651 9.29462 10.5658 10.9515 9.29462 9.65231 8.92651 9.29462 7.6981 8.03549 9.29462 9.65231 8.03549 8.36426 10.9515 11.3257 9.65231 9.99956 11.3257 11.6785 9.99956 10.3312 9.65231 9.99956 8.36426 8.68563 9.99956 10.3312 8.68563 8.99855 14.3751 14.7126 13.0302 13.3553 14.7126 14.9786 13.3553 13.606 13.0302 13.3553 11.6785 11.9907 13.3553 13.606 11.9907 12.2371 14.9786 15.1322 13.606 13.7721 15.1322 15.2166 13.7721 13.8889 13.606 13.7721 12.2371 12.4233 13.7721 13.8889 12.4233 12.5962 11.6785 11.9907 10.3312 10.6351 11.9907 12.2371 10.6351 10.8926 10.3312 10.6351 8.99855 9.3001 10.6351 10.8926 9.3001 9.58313 12.2371 12.4233 10.8926 11.1195 12.4233 12.5962 11.1195 11.3788 10.8926 11.1195 9.58313 9.86184 11.1195 11.3788 9.86184 10.2037 4.93958 5.27684 3.83071 4.17411 5.27684 5.61228 4.17411 4.52048 3.83071 4.17411 2.68764 3.03398 4.17411 4.52048 3.03398 3.39951 5.61228 5.94923 4.52048 4.86456 5.94923 6.29116 4.86456 5.20332 4.52048 4.86456 3.39951 3.76826 4.86456 5.20332 3.76826 4.12