# vtk DataFile Version 3.0
#This file was generated by the deal.II library on 2015/9/2 at 7:22: 2
ASCII
DATASET UNSTRUCTURED_GRID

POINTS 51200 double
0 0 0
0.0125 0 0
0 0.0125 0
0.0125 0.0125 0
0.0125 0 0
0.025 0 0
0.0125 0.0125 0
0.025 0.0125 0
0 0.0125 0
0.0125 0.0125 0
0 0.025 0
0.0125 0.025 0
0.0125 0.0125 0
0.025 0.0125 0
0.0125 0.025 0
0.025 0.025 0
0.025 0 0
0.0375 0 0
0.025 0.0125 0
0.0375 0.0125 0
0.0375 0 0
0.05 0 0
0.0375 0.0125 0
0.05 0.0125 0
0.025 0.0125 0
0.0375 0.0125 0
0.025 0.025 0
0.0375 0.025 0
0.0375 0.0125 0
0.05 0.0125 0
0.0375 0.025 0
0.05 0.025 0
0 0.025 0
0.0125 0.025 0
0 0.0375 0
0.0125 0.0375 0
0.0125 0.025 0
0.025 0.025 0
0.0125 0.0375 0
0.025 0.0375 0
0 0.0375 0
0.0125 0.0375 0
0 0.05 0
0.0125 0.05 0
0.0125 0.0375 0
0.025 0.0375 0
0.0125 0.05 0
0.025 0.05 0
0.025 0.025 0
0.0375 0.025 0
0.025 0.0375 0
0.0375 0.0375 0
0.0375 0.025 0
0.05 0.025 0
0.0375 0.0375 0
0.05 0.0375 0
0.025 0.0375 0
0.0375 0.0375 0
0.025 0.05 0
0.0375 0.05 0
0.0375 0.0375 0
0.05 0.0375 0
0.0375 0.05 0
0.05 0.05 0
0.05 0 0
0.0625 0 0
0.05 0.0125 0
0.0625 0.0125 0
0.0625 0 0
0.075 0 0
0.0625 0.0125 0
0.075 0.0125 0
0.05 0.0125 0
0.0625 0.0125 0
0.05 0.025 0
0.0625 0.025 0
0.0625 0.0125 0
0.075 0.0125 0
0.0625 0.025 0
0.075 0.025 0
0.075 0 0
0.0875 0 0
0.075 0.0125 0
0.0875 0.0125 0
0.0875 0 0
0.1 0 0
0.0875 0.0125 0
0.1 0.0125 0
0.075 0.0125 0
0.0875 0.0125 0
0.075 0.025 0
0.0875 0.025 0
0.0875 0.0125 0
0.1 0.0125 0
0.0875 0.025 0
0.1 0.025 0
0.05 0.025 0
0.0625 0.025 0
0.05 0.0375 0
0.0625 0.0375 0
0.0625 0.025 0
0.075 0.025 0
0.0625 0.0375 0
0.075 0.0375 0
0.05 0.0375 0
0.0625 0.0375 0
0.05 0.05 0
0.0625 0.05 0
0.0625 0.0375 0
0.075 0.0375 0
0.0625 0.05 0
0.075 0.05 0
0.075 0.025 0
0.0875 0.025 0
0.075 0.0375 0
0.0875 0.0375 0
0.0875 0.025 0
0.1 0.025 0
0.0875 0.0375 0
0.1 0.0375 0
0.075 0.0375 0
0.0875 0.0375 0
0.075 0.05 0
0.0875 0.05 0
0.0875 0.0375 0
0.1 0.0375 0
0.0875 0.05 0
0.1 0.05 0
0.1 0 0
0.1125 0 0
0.1 0.0125 0
0.1125 0.0125 0
0.1125 0 0
0.125 0 0
0.1125 0.0125 0
0.125 0.0125 0
0.1 0.0125 0
0.1125 0.0125 0
0.1 0.025 0
0.1125 0.025 0
0.1125 0.0125 0
0.125 0.0125 0
0.1125 0.025 0
0.125 0.025 0
0.125 0 0
0.1375 0 0
0.125 0.0125 0
0.1375 0.0125 0
0.1375 0 0
0.15 0 0
0.1375 0.0125 0
0.15 0.0125 0
0.125 0.0125 0
0.1375 0.0125 0
0.125 0.025 0
0.1375 0.025 0
0.1375 0.0125 0
0.15 0.0125 0
0.1375 0.025 0
0.15 0.025 0
0.1 0.025 0
0.1125 0.025 0
0.1 0.0375 0
0.1125 0.0375 0
0.1125 0.025 0
0.125 0.025 0
0.1125 0.0375 0
0.125 0.0375 0
0.1 0.0375 0
0.1125 0.0375 0
0.1 0.05 0
0.1125 0.05 0
0.1125 0.0375 0
0.125 0.0375 0
0.1125 0.05 0
0.125 0.05 0
0.125 0.025 0
0.1375 0.025 0
0.125 0.0375 0
0.1375 0.0375 0
0.1375 0.025 0
0.15 0.025 0
0.1375 0.0375 0
0.15 0.0375 0
0.125 0.0375 0
0.1375 0.0375 0
0.125 0.05 0
0.1375 0.05 0
0.1375 0.0375 0
0.15 0.0375 0
0.1375 0.05 0
0.15 0.05 0
0.15 0 0
0.1625 0 0
0.15 0.0125 0
0.1625 0.0125 0
0.1625 0 0
0.175 0 0
0.1625 0.0125 0
0.175 0.0125 0
0.15 0.0125 0
0.1625 0.0125 0
0.15 0.025 0
0.1625 0.025 0
0.1625 0.0125 0
0.175 0.0125 0
0.1625 0.025 0
0.175 0.025 0
0.175 0 0
0.1875 0 0
0.175 0.0125 0
0.1875 0.0125 0
0.1875 0 0
0.2 0 0
0.1875 0.0125 0
0.2 0.0125 0
0.175 0.0125 0
0.1875 0.0125 0
0.175 0.025 0
0.1875 0.025 0
0.1875 0.0125 0
0.2 0.0125 0
0.1875 0.025 0
0.2 0.025 0
0.15 0.025 0
0.1625 0.025 0
0.15 0.0375 0
0.1625 0.0375 0
0.1625 0.025 0
0.175 0.025 0
0.1625 0.0375 0
0.175 0.0375 0
0.15 0.0375 0
0.1625 0.0375 0
0.15 0.05 0
0.1625 0.05 0
0.1625 0.0375 0
0.175 0.0375 0
0.1625 0.05 0
0.175 0.05 0
0.175 0.025 0
0.1875 0.025 0
0.175 0.0375 0
0.1875 0.0375 0
0.1875 0.025 0
0.2 0.025 0
0.1875 0.0375 0
0.2 0.0375 0
0.175 0.0375 0
0.1875 0.0375 0
0.175 0.05 0
0.1875 0.05 0
0.1875 0.0375 0
0.2 0.0375 0
0.1875 0.05 0
0.2 0.05 0
0.2 0 0
0.2125 0 0
0.2 0.0125 0
0.2125 0.0125 0
0.2125 0 0
0.225 0 0
0.2125 0.0125 0
0.225 0.0125 0
0.2 0.0125 0
0.2125 0.0125 0
0.2 0.025 0
0.2125 0.025 0
0.2125 0.0125 0
0.225 0.0125 0
0.2125 0.025 0
0.225 0.025 0
0.225 0 0
0.2375 0 0
0.225 0.0125 0
0.2375 0.0125 0
0.2375 0 0
0.25 0 0
0.2375 0.0125 0
0.25 0.0125 0
0.225 0.0125 0
0.2375 0.0125 0
0.225 0.025 0
0.2375 0.025 0
0.2375 0.0125 0
0.25 0.0125 0
0.2375 0.025 0
0.25 0.025 0
0.2 0.025 0
0.2125 0.025 0
0.2 0.0375 0
0.2125 0.0375 0
0.2125 0.025 0
0.225 0.025 0
0.2125 0.0375 0
0.225 0.0375 0
0.2 0.0375 0
0.2125 0.0375 0
0.2 0.05 0
0.2125 0.05 0
0.2125 0.0375 0
0.225 0.0375 0
0.2125 0.05 0
0.225 0.05 0
0.225 0.025 0
0.2375 0.025 0
0.225 0.0375 0
0.2375 0.0375 0
0.2375 0.025 0
0.25 0.025 0
0.2375 0.0375 0
0.25 0.0375 0
0.225 0.0375 0
0.2375 0.0375 0
0.225 0.05 0
0.2375 0.05 0
0.2375 0.0375 0
0.25 0.0375 0
0.2375 0.05 0
0.25 0.05 0
0.25 0 0
0.2625 0 0
0.25 0.0125 0
0.2625 0.0125 0
0.2625 0 0
0.275 0 0
0.2625 0.0125 0
0.275 0.0125 0
0.25 0.0125 0
0.2625 0.0125 0
0.25 0.025 0
0.2625 0.025 0
0.2625 0.0125 0
0.275 0.0125 0
0.2625 0.025 0
0.275 0.025 0
0.275 0 0
0.2875 0 0
0.275 0.0125 0
0.2875 0.0125 0
0.2875 0 0
0.3 0 0
0.2875 0.0125 0
0.3 0.0125 0
0.275 0.0125 0
0.2875 0.0125 0
0.275 0.025 0
0.2875 0.025 0
0.2875 0.0125 0
0.3 0.0125 0
0.2875 0.025 0
0.3 0.025 0
0.25 0.025 0
0.2625 0.025 0
0.25 0.0375 0
0.2625 0.0375 0
0.2625 0.025 0
0.275 0.025 0
0.2625 0.0375 0
0.275 0.0375 0
0.25 0.0375 0
0.2625 0.0375 0
0.25 0.05 0
0.2625 0.05 0
0.2625 0.0375 0
0.275 0.0375 0
0.2625 0.05 0
0.275 0.05 0
0.275 0.025 0
0.2875 0.025 0
0.275 0.0375 0
0.2875 0.0375 0
0.2875 0.025 0
0.3 0.025 0
0.2875 0.0375 0
0.3 0.0375 0
0.275 0.0375 0
0.2875 0.0375 0
0.275 0.05 0
0.2875 0.05 0
0.2875 0.0375 0
0.3 0.0375 0
0.2875 0.05 0
0.3 0.05 0
0.3 0 0
0.3125 0 0
0.3 0.0125 0
0.3125 0.0125 0
0.3125 0 0
0.325 0 0
0.3125 0.0125 0
0.325 0.0125 0
0.3 0.0125 0
0.3125 0.0125 0
0.3 0.025 0
0.3125 0.025 0
0.3125 0.0125 0
0.325 0.0125 0
0.3125 0.025 0
0.325 0.025 0
0.325 0 0
0.3375 0 0
0.325 0.0125 0
0.3375 0.0125 0
0.3375 0 0
0.35 0 0
0.3375 0.0125 0
0.35 0.0125 0
0.325 0.0125 0
0.3375 0.0125 0
0.325 0.025 0
0.3375 0.025 0
0.3375 0.0125 0
0.35 0.0125 0
0.3375 0.025 0
0.35 0.025 0
0.3 0.025 0
0.3125 0.025 0
0.3 0.0375 0
0.3125 0.0375 0
0.3125 0.025 0
0.325 0.025 0
0.3125 0.0375 0
0.325 0.0375 0
0.3 0.0375 0
0.3125 0.0375 0
0.3 0.05 0
0.3125 0.05 0
0.3125 0.0375 0
0.325 0.0375 0
0.3125 0.05 0
0.325 0.05 0
0.325 0.025 0
0.3375 0.025 0
0.325 0.0375 0
0.3375 0.0375 0
0.3375 0.025 0
0.35 0.025 0
0.3375 0.0375 0
0.35 0.0375 0
0.325 0.0375 0
0.3375 0.0375 0
0.325 0.05 0
0.3375 0.05 0
0.3375 0.0375 0
0.35 0.0375 0
0.3375 0.05 0
0.35 0.05 0
0.35 0 0
0.3625 0 0
0.35 0.0125 0
0.3625 0.0125 0
0.3625 0 0
0.375 0 0
0.3625 0.0125 0
0.375 0.0125 0
0.35 0.0125 0
0.3625 0.0125 0
0.35 0.025 0
0.3625 0.025 0
0.3625 0.0125 0
0.375 0.0125 0
0.3625 0.025 0
0.375 0.025 0
0.375 0 0
0.3875 0 0
0.375 0.0125 0
0.3875 0.0125 0
0.3875 0 0
0.4 0 0
0.3875 0.0125 0
0.4 0.0125 0
0.375 0.0125 0
0.3875 0.0125 0
0.375 0.025 0
0.3875 0.025 0
0.3875 0.0125 0
0.4 0.0125 0
0.3875 0.025 0
0.4 0.025 0
0.35 0.025 0
0.3625 0.025 0
0.35 0.0375 0
0.3625 0.0375 0
0.3625 0.025 0
0.375 0.025 0
0.3625 0.0375 0
0.375 0.0375 0
0.35 0.0375 0
0.3625 0.0375 0
0.35 0.05 0
0.3625 0.05 0
0.3625 0.0375 0
0.375 0.0375 0
0.3625 0.05 0
0.375 0.05 0
0.375 0.025 0
0.3875 0.025 0
0.375 0.0375 0
0.3875 0.0375 0
0.3875 0.025 0
0.4 0.025 0
0.3875 0.0375 0
0.4 0.0375 0
0.375 0.0375 0
0.3875 0.0375 0
0.375 0.05 0
0.3875 0.05 0
0.3875 0.0375 0
0.4 0.0375 0
0.3875 0.05 0
0.4 0.05 0
0.4 0 0
0.4125 0 0
0.4 0.0125 0
0.4125 0.0125 0
0.4125 0 0
0.425 0 0
0.4125 0.0125 0
0.425 0.0125 0
0.4 0.0125 0
0.4125 0.0125 0
0.4 0.025 0
0.4125 0.025 0
0.4125 0.0125 0
0.425 0.0125 0
0.4125 0.025 0
0.425 0.025 0
0.425 0 0
0.4375 0 0
0.425 0.0125 0
0.4375 0.0125 0
0.4375 0 0
0.45 0 0
0.4375 0.0125 0
0.45 0.0125 0
0.425 0.0125 0
0.4375 0.0125 0
0.425 0.025 0
0.4375 0.025 0
0.4375 0.0125 0
0.45 0.0125 0
0.4375 0.025 0
0.45 0.025 0
0.4 0.025 0
0.4125 0.025 0
0.4 0.0375 0
0.4125 0.0375 0
0.4125 0.025 0
0.425 0.025 0
0.4125 0.0375 0
0.425 0.0375 0
0.4 0.0375 0
0.4125 0.0375 0
0.4 0.05 0
0.4125 0.05 0
0.4125 0.0375 0
0.425 0.0375 0
0.4125 0.05 0
0.425 0.05 0
0.425 0.025 0
0.4375 0.025 0
0.425 0.0375 0
0.4375 0.0375 0
0.4375 0.025 0
0.45 0.025 0
0.4375 0.0375 0
0.45 0.0375 0
0.425 0.0375 0
0.4375 0.0375 0
0.425 0.05 0
0.4375 0.05 0
0.4375 0.0375 0
0.45 0.0375 0
0.4375 0.05 0
0.45 0.05 0
0.45 0 0
0.4625 0 0
0.45 0.0125 0
0.4625 0.0125 0
0.4625 0 0
0.475 0 0
0.4625 0.0125 0
0.475 0.0125 0
0.45 0.0125 0
0.4625 0.0125 0
0.45 0.025 0
0.4625 0.025 0
0.4625 0.0125 0
0.475 0.0125 0
0.4625 0.025 0
0.475 0.025 0
0.475 0 0
0.4875 0 0
0.475 0.0125 0
0.4875 0.0125 0
0.4875 0 0
0.5 0 0
0.4875 0.0125 0
0.5 0.0125 0
0.475 0.0125 0
0.4875 0.0125 0
0.475 0.025 0
0.4875 0.025 0
0.4875 0.0125 0
0.5 0.0125 0
0.4875 0.025 0
0.5 0.025 0
0.45 0.025 0
0.4625 0.025 0
0.45 0.0375 0
0.4625 0.0375 0
0.4625 0.025 0
0.475 0.025 0
0.4625 0.0375 0
0.475 0.0375 0
0.45 0.0375 0
0.4625 0.0375 0
0.45 0.05 0
0.4625 0.05 0
0.4625 0.0375 0
0.475 0.0375 0
0.4625 0.05 0
0.475 0.05 0
0.475 0.025 0
0.4875 0.025 0
0.475 0.0375 0
0.4875 0.0375 0
0.4875 0.025 0
0.5 0.025 0
0.4875 0.0375 0
0.5 0.0375 0
0.475 0.0375 0
0.4875 0.0375 0
0.475 0.05 0
0.4875 0.05 0
0.4875 0.0375 0
0.5 0.0375 0
0.4875 0.05 0
0.5 0.05 0
0.5 0 0
0.5125 0 0
0.5 0.0125 0
0.5125 0.0125 0
0.5125 0 0
0.525 0 0
0.5125 0.0125 0
0.525 0.0125 0
0.5 0.0125 0
0.5125 0.0125 0
0.5 0.025 0
0.5125 0.025 0
0.5125 0.0125 0
0.525 0.0125 0
0.5125 0.025 0
0.525 0.025 0
0.525 0 0
0.5375 0 0
0.525 0.0125 0
0.5375 0.0125 0
0.5375 0 0
0.55 0 0
0.5375 0.0125 0
0.55 0.0125 0
0.525 0.0125 0
0.5375 0.0125 0
0.525 0.025 0
0.5375 0.025 0
0.5375 0.0125 0
0.55 0.0125 0
0.5375 0.025 0
0.55 0.025 0
0.5 0.025 0
0.5125 0.025 0
0.5 0.0375 0
0.5125 0.0375 0
0.5125 0.025 0
0.525 0.025 0
0.5125 0.0375 0
0.525 0.0375 0
0.5 0.0375 0
0.5125 0.0375 0
0.5 0.05 0
0.5125 0.05 0
0.5125 0.0375 0
0.525 0.0375 0
0.5125 0.05 0
0.525 0.05 0
0.525 0.025 0
0.5375 0.025 0
0.525 0.0375 0
0.5375 0.0375 0
0.5375 0.025 0
0.55 0.025 0
0.5375 0.0375 0
0.55 0.0375 0
0.525 0.0375 0
0.5375 0.0375 0
0.525 0.05 0
0.5375 0.05 0
0.5375 0.0375 0
0.55 0.0375 0
0.5375 0.05 0
0.55 0.05 0
0.55 0 0
[...]
POINT_DATA 51200
SCALARS x_displacement double 1
LOOKUP_TABLE default
0 0.472165 0 0.311655 0.472165 0.830805 0.311655 0.644321 0 0.311655 0 0.260261 0.311655 0.644321 0.260261 0.532356 0.830805 1.14634 0.644321 0.951304 1.14634 1.43908 0.951304 1.23702 0.644321 0.951304 0.532356 0.807856 0.951304 1.23702 0.807856 1.07382 0 0.260261 0 0.226259 0.260261 0.532356 0.226259 0.462185 0 0.226259 0 0.201198 0.226259 0.462185 0.201198 0.40962 0.532356 0.807856 0.462185 0.703547 0.807856 1.07382 0.703547 0.944286 0.462185 0.703547 0.40962 0.623681 0.703547 0.944286 0.623681 0.839714 1.43908 1.71523 1.23702 1.50597 1.71523 1.97783 1.50597 1.76118 1.23702 1.50597 1.07382 1.32831 1.50597 1.76118 1.32831 1.57165 1.97783 2.22854 1.76118 2.00457 2.22854 2.46847 2.00457 2.23745 1.76118 2.00457 1.57165 1.80471 2.00457 2.23745 1.80471 2.02834 1.07382 1.32831 0.944286 1.17948 1.32831 1.57165 1.17948 1.40731 0.944286 1.17948 0.839714 1.05415 1.17948 1.40731 1.05415 1.26452 1.57165 1.80471 1.40731 1.6273 1.80471 2.02834 1.6273 1.83957 1.40731 1.6273 1.26452 1.4696 1.6273 1.83957 1.4696 1.66889 2.46847 2.69843 2.23745 2.46078 2.69843 2.91911 2.46078 2.67534 2.23745 2.46078 2.02834 2.2433 2.46078 2.67534 2.2433 2.45025 2.91911 3.13113 2.67534 2.88177 3.13113 3.33506 2.88177 3.08065 2.67534 2.88177 2.45025 2.64977 2.88177 3.08065 2.64977 2.84236 2.02834 2.2433 1.83957 2.04447 2.2433 2.45025 2.04447 2.24239 1.83957 2.04447 1.66889 1.86233 2.04447 2.24239 1.86233 2.05001 2.45025 2.64977 2.24239 2.43374 2.64977 2.84236 2.43374 2.61891 2.24239 2.43374 2.05001 2.23213 2.43374 2.61891 2.23213 2.40892 3.33506 3.53146 3.08065 3.27252 3.53146 3.72088 3.27252 3.45789 3.08065 3.27252 2.84236 3.02852 3.27252 3.45789 3.02852 3.20869 3.72088 3.90388 3.45789 3.63727 3.90388 4.081 3.63727 3.81115 3.45789 3.63727 3.20869 3.3833 3.63727 3.81115 3.3833 3.55279 2.84236 3.02852 2.61891 2.7983 3.02852 3.20869 2.7983 2.97224 2.61891 2.7983 2.40892 2.58063 2.7983 2.97224 2.58063 2.7475 3.20869 3.3833 2.97224 3.14111 3.3833 3.55279 3.14111 3.30524 2.97224 3.14111 2.7475 2.90979 3.14111 3.30524 2.90979 3.06776 4.081 4.25281 3.81115 3.98002 4.25281 4.41989 3.98002 4.14439 3.81115 3.98002 3.55279 3.71758 3.98002 4.14439 3.71758 3.87808 4.41989 4.58282 4.14439 4.30475 4.58282 4.7422 4.30475 4.46161 4.14439 4.30475 3.87808 4.03472 4.30475 4.46161 4.03472 4.18791 3.55279 3.71758 3.30524 3.46497 3.71758 3.87808 3.46497 3.62065 3.30524 3.46497 3.06776 3.22166 3.46497 3.62065 3.22166 3.37174 3.87808 4.03472 3.62065 3.7726 4.03472 4.18791 3.7726 3.92116 3.62065 3.7726 3.37174 3.51824 3.7726 3.92116 3.51824 3.66143 4.7422 4.89863 4.46161 4.61548 4.89863 5.05271 4.61548 4.76686 4.46161 4.61548 4.18791 4.33807 4.61548 4.76686 4.33807 4.48563 5.05271 5.20502 4.76686 4.91623 5.20502 5.35612 4.91623 5.06404 4.76686 4.91623 4.48563 4.63101 4.91623 5.06404 4.63101 4.77463 4.18791 4.33807 3.92116 4.06668 4.33807 4.48563 4.06668 4.20952 3.92116 4.06668 3.66143 3.80157 4.06668 4.20952 3.80157 3.93894 4.48563 4.63101 4.20952 4.35005 4.63101 4.77463 4.35005 4.48865 4.20952 4.35005 3.93894 4.07387 4.35005 4.48865 4.07387 4.20673 5.35612 5.50648 5.06404 5.21071 5.50648 5.65645 5.21071 5.35656 5.06404 5.21071 4.77463 4.91686 5.21071 5.35656 4.91686 5.05806 5.65645 5.80625 5.35656 5.50182 5.80625 5.95593 5.50182 5.64661 5.35656 5.50182 5.05806 5.19852 5.50182 5.64661 5.19852 5.3384 4.77463 4.91686 4.48865 4.62574 4.91686 5.05806 4.62574 4.76171 4.48865 4.62574 4.20673 4.33796 4.62574 4.76171 4.33796 4.46802 5.05806 5.19852 4.76171 4.89692 5.19852 5.3384 4.89692 5.03164 4.76171 4.89692 4.46802 4.59738 4.89692 5.03164 4.59738 4.72644 5.95593 6.10537 5.64661 5.79093 6.10537 6.25432 5.79093 5.93469 5.64661 5.79093 5.3384 5.4778 5.79093 5.93469 5.4778 5.61669 6.25432 6.40248 5.93469 6.07774 6.40248 6.54953 6.07774 6.21992 5.93469 6.07774 5.61669 5.75498 6.07774 6.21992 5.75498 5.89257 5.3384 5.4778 5.03164 5.16601 5.4778 5.61669 5.16601 5.30004 5.03164 5.16601 4.72644 4.85543 5.16601 5.30004 4.85543 4.98439 5.61669 5.75498 5.30004 5.43365 5.75498 5.89257 5.43365 5.56675 5.30004 5.43365 4.98439 5.1132 5.43365 5.56675 5.1132 5.24172 6.54953 6.69524 6.21992 6.3611 6.69524 6.83946 6.3611 6.5012 6.21992 6.3611 5.89257 6.0294 6.3611 6.5012 6.0294 6.16543 6.83946 6.98215 6.5012 6.6402 6.98215 7.12337 6.6402 6.77813 6.5012 6.6402 6.16543 6.30069 6.6402 6.77813 6.30069 6.43523 5.89257 6.0294 5.56675 5.69927 6.0294 6.16543 5.69927 5.83125 5.56675 5.69927 5.24172 5.36989 5.69927 5.83125 5.36989 5.49778 6.16543 6.30069 5.83125 5.96275 6.30069 6.43523 5.96275 6.09385 5.83125 5.96275 5.49778 5.6255 5.96275 6.09385 5.6255 5.75319 7.12337 7.2632 6.77813 6.91504 7.2632 7.40174 6.91504 7.05099 6.77813 6.91504 6.43523 6.56909 6.91504 7.05099 6.56909 6.70232 7.40174 7.5391 7.05099 7.18604 7.5391 7.67535 7.18604 7.32023 7.05099 7.18604 6.70232 6.83496 7.18604 7.32023 6.83496 6.96701 6.43523 6.56909 6.09385 6.22462 6.56909 6.70232 6.22462 6.35509 6.09385 6.22462 5.75319 5.88089 6.22462 6.35509 5.88089 6.00863 6.70232 6.83496 6.35509 6.48527 6.83496 6.96701 6.48527 6.61515 6.35509 6.48527 6.00863 6.13637 6.48527 6.61515 6.13637 6.2641 7.67535 7.81055 7.32023 7.45359 7.81055 7.94473 7.45359 7.58616 7.32023 7.45359 6.96701 7.09849 7.45359 7.58616 7.09849 7.2294 7.94473 8.07791 7.58616 7.71794 8.07791 8.21011 7.71794 7.84894 7.58616 7.71794 7.2294 7.35975 7.71794 7.84894 7.35975 7.48954 6.96701 7.09849 6.61515 6.74472 7.09849 7.2294 6.74472 6.87396 6.61515 6.74472 6.2641 6.39176 6.74472 6.87396 6.39176 6.51934 7.2294 7.35975 6.87396 7.00287 7.35975 7.48954 7.00287 7.13144 6.87396 7.00287 6.51934 6.64681 7.00287 7.13144 6.64681 6.77416 8.21011 8.34133 7.84894 7.97916 8.34133 8.47157 7.97916 8.10861 7.84894 7.97916 7.48954 7.61877 7.97916 8.10861 7.61877 7.74743 8.47157 8.60082 8.10861 8.23728 8.60082 8.72907 8.23728 8.36518 8.10861 8.23728 7.74743 7.87554 8.23728 8.36518 7.87554 8.00308 7.48954 7.61877 7.13144 7.25967 7.61877 7.74743 7.25967 7.38755 7.13144 7.25967 6.77416 6.90138 7.25967 7.38755 6.90138 7.02847 7.74743 7.87554 7.38755 7.51508 7.87554 8.00308 7.51508 7.64227 7.38755 7.51508 7.02847 7.15543 7.51508 7.64227 7.15543 7.28225 8.72907 8.85633 8.36518 8.4923 8.85633 8.98259 8.4923 8.61865 8.36518 8.4923 8.00308 8.13007 8.4923 8.61865 8.13007 8.25649 8.98259 9.10783 8.61865 8.74421 9.10783 9.23208 8.74421 8.86901 8.61865 8.74421 8.25649 8.38236 8.74421 8.86901 8.38236 8.50767 8.00308 8.13007 7.64227 7.76911 8.13007 8.25649 7.76911 7.89561 7.64227 7.76911 7.28225 7.40894 7.76911 7.89561 7.40894 7.5355 8.25649 8.38236 7.89561 8.02176 8.38236 8.50767 8.02176 8.14755 7.89561 8.02176 7.5355 7.66191 8.02176 8.14755 7.66191 7.78817 9.23208 9.35533 8.86901 8.99306 9.35533 9.47764 8.99306 9.11638 8.86901 8.99306 8.50767 8.63243 8.99306 9.11638 8.63243 8.75664 9.47764 9.59906 9.11638 9.23903 9.59906 9.71973 9.23903 9.36111 9.11638 9.23903 8.75664 8.88033 9.23903 9.36111 8.88033 9.00352 8.50767 8.63243 8.14755 8.27297 8.63243 8.75664 8.27297 8.398 8.14755 8.27297 7.78817 7.91424 8.27297 8.398 7.91424 8.04008 8.75664 8.88033 8.398 8.52261 8.88033 9.00352 8.52261 8.64677 8.398 8.52261 8.04008 8.16561 8.52261 8.64677 8.16561 8.29074 9.71973 9.83982 9.36111 9.48272 9.83982 9.95961 9.48272 9.60405 9.36111 9.48272 9.00352 9.12626 9.48272 9.60405 9.12626 9.24865 9.95961 10.0794 9.60405 9.7253 10.0794 10.1996 9.7253 9.84671 9.60405 9.7253 9.24865 9.3708 9.7253 9.84671 9.3708 9.49287 9.00352 9.12626 8.64677 8.77046 9.12626 9.24865 8.77046 8.89367 8.64677 8.77046 8.29074 8.41537 8.77046 8.89367 8.41537 8.53941 9.24865 9.3708 8.89367 9.01646 9.3708 9.49287 9.01646 9.13892 8.89367 9.01646 8.53941 8.66282 9.01646 9.13892 8.66282 8.78563 10.1996 10.3206 9.84671 9.96852 10.3206 10.4427 9.96852 10.091 9.84671 9.96852 9.49287 9.61503 9.96852 10.091 9.61503 9.73745 10.4427 10.5662 10.091 10.2142 10.5662 10.6912 10.2142 10.3383 10.091 10.2142 9.73745 9.86024 10.2142 10.3383 9.86024 9.98348 9.49287 9.61503 9.13892 9.26118 9.61503 9.73745 9.26118 9.38338 9.13892 9.26118 8.78563 8.90792 9.26118 9.38338 8.90792 9.02987 9.73745 9.86024 9.38338 9.50566 9.86024 9.98348 9.50566 9.62807 9.38338 9.50566 9.02987 9.1516 9.50566 9.62807 9.1516 9.27319 10.6912 10.8177 10.3383 10.4632 10.8177 10.9454 10.4632 10.5889 10.3383 10.4632 9.98348 10.1071 10.4632 10.5889 10.1071 10.2311 10.9454 11.0741 10.5889 10.715 11.0741 11.2034 10.715 10.8415 10.5889 10.715 10.2311 10.3553 10.715 10.8415 10.3553 10.4794 9.98348 10.1071 9.62807 9.75058 10.1071 10.2311 9.75058 9.87309 9.62807 9.75058 9.27319 9.39459 9.75058 9.87309 9.39459 9.51567 10.2311 10.3553 9.87309 9.99547 10.3553 10.4794 9.99547 10.1176 9.87309 9.99547 9.51567 9.6363 9.99547 10.1176 9.6363 9.75635 11.2034 11.333 10.8415 10.9681 11.333 11.4625 10.9681 11.0946 10.8415 10.9681 10.4794 10.6035 10.9681 11.0946 10.6035 10.7273 11.4625 11.5917 11.0946 11.2208 11.5917 11.7204 11.2208 11.3465 11.0946 11.2208 10.7273 10.8508 11.2208 11.3465 10.8508 10.9738 10.4794 10.6035 10.1176 10.2393 10.6035 10.7273 10.2393 10.3606 10.1176 10.2393 9.75635 9.87579 10.2393 10.3606 9.87579 9.99464 10.7273 10.8508 10.3606 10.4815 10.8508 10.9738 10.4815 10.602 10.3606 10.4815 9.99464 10.113 10.4815 10.602 10.113 10.2309 11.7204 11.8484 11.3465 11.4718 11.8484 11.9756 11.4718 11.5964 11.3465 11.4718 10.9738 11.0964 11.4718 11.5964 11.0964 11.2186 11.9756 12.1021 11.5964 11.7204 12.1021 12.2276 11.7204 11.8438 11.5964 11.7204 11.2186 11.3403 11.7204 11.8438 11.3403 11.4615 10.9738 11.0964 10.602 10.7221 11.0964 11.2186 10.7221 10.8418 10.602 10.7221 10.2309 10.3484 10.7221 10.8418 10.3484 10.4657 11.2186 11.3403 10.8418 10.9612 11.3403 11.4615 10.9612 11.0802 10.8418 10.9612 10.4657 10.5827 10.9612 11.0802 10.5827 10.6995 12.2276 12.3523 11.8438 11.9666 12.3523 12.4762 11.9666 12.0887 11.8438 11.9666 11.4615 11.5822 11.9666 12.0887 11.5822 11.7025 12.4762 12.5993 12.0887 12.2103 12.5993 12.7218 12.2103 12.3314 12.0887 12.2103 11.7025 11.8223 12.2103 12.3314 11.8223 11.9416 11.4615 11.5822 11.0802 11.1988 11.5822 11.7025 11.1988 11.3171 11.0802 11.1988 10.6995 10.8161 11.1988 11.3171 10.8161 10.9324 11.7025 11.8223 11.3171 11.435 11.8223 11.9416 11.435 11.5525 11.3171 11.435 10.9324 11.0484 11.435 11.5525 11.0484 11.1639 12.7218 12.8438 12.3314 12.4521 12.8438 12.9658 12.4521 12.5728 12.3314 12.4521 11.9416 12.0607 12.4521 12.5728 12.0607 12.1794 12.9658 13.088 12.5728 12.6937 13.088 13.2111 12.6937 12.815 12.5728 12.6937 12.1794 12.2981 12.6937 12.815 12.2981 12.4168 11.9416 12.0607 11.5525 11.6695 12.0607 12.1794 11.6695 11.7861 11.5525 11.6695 11.1639 11.2789 11.6695 11.7861 11.2789 11.3932 12.1794 12.2981 11.7861 11.9021 12.2981 12.4168 11.9021 12.0178 11.7861 11.9021 11.3932 11.5067 11.9021 12.0178 11.5067 11.6193 13.2111 13.3357 12.815 12.9372 13.3357 13.4623 12.9372 13.0607 12.815 12.9372 12.4168 12.5358 12.9372 13.0607 12.5358 12.6555 13.4623 13.5917 13.0607 13.1858 13.5917 13.7242 13.1858 13.3128 13.0607 13.1858 12.6555 12.7759 13.1858 13.3128 12.7759 12.8972 12.4168 12.5358 12.0178 12.1333 12.5358 12.6555 12.1333 12.2487 12.0178 12.1333 11.6193 11.7312 12.1333 12.2487 11.7312 11.8425 12.6555 12.7759 12.2487 12.3644 12.7759 12.8972 12.3644 12.4805 12.2487 12.3644 11.8425 11.9535 12.3644 12.4805 11.9535 12.0646 13.7242 13.8599 13.3128 13.4415 13.8599 13.9987 13.4415 13.5717 13.3128 13.4415 12.8972 13.0196 13.4415 13.5717 13.0196 13.1426 13.9987 14.1399 13.5717 13.703 14.1399 14.2824 13.703 13.8344 13.5717 13.703 13.1426 13.266 13.703 13.8344 13.266 13.3889 12.8972 13.0196 12.4805 12.597 13.0196 13.1426 12.597 12.7139 12.4805 12.597 12.0646 12.1759 12.597 12.7139 12.1759 12.2875 13.1426 13.266 12.7139 12.8309 13.266 13.3889 12.8309 12.9474 12.7139 12.8309 12.2875 12.3992 12.8309 12.9474 12.3992 12.5107 14.2824 14.4246 13.8344 13.9646 14.4246 14.5647 13.9646 14.0924 13.8344 13.9646 13.3889 13.5106 13.9646 14.0924 13.5106 13.6299 14.5647 14.7002 14.0924 14.2159 14.7002 14.8286 14.2159 14.3333 14.0924 14.2159 13.6299 13.7457 14.2159 14.3333 13.7457 13.8567 13.3889 13.5106 12.9474 13.0628 13.5106 13.6299 13.0628 13.1763 12.9474 13.0628 12.5107 12.6213 13.0628 13.1763 12.6213 12.7305 13.6299 13.7457 13.1763 13.2871 13.7457 13.8567 13.2871 13.3944 13.1763 13.2871 12.7305 12.8377 13.2871 13.3944 12.8377 12.9423 14.8286 14.9468 14.3333 14.4426 14.9468 15.0516 14.4426 14.5419 14.3333 14.4426 13.8567 13.9618 14.4426 14.5419 13.9618 14.0601 15.0516 15.1393 14.5419 14.6292 15.1393 15.2061 14.6292 14.7023 14.5419 14.6292 14.0601 14.151 14.6292 14.7023 14.151 14.2345 13.8567 13.9618 13.3944 13.4975 13.9618 14.0601 13.4975 13.596 13.3944 13.4975 12.9423 13.044 13.4975 13.596 13.044 13.1423 14.0601 14.151 13.596 13.69 14.151 14.2345 13.69 13.7796 13.596 13.69 13.1423 13.237 13.69 13.7796 13.237 13.3279 15.2061 15.255 14.7023 14.7635 15.255 15.2965 14.7635 14.8224 14.7023 14.7635 14.2345 14.3114 14.7635 14.8224 14.3114 14.3864 15.2965 15.3394 14.8224 14.8864 15.3394 15.3917 14.8864 14.9619 14.8224 14.8864 14.3864 14.4624 14.8864 14.9619 14.4624 14.5416 14.2345 14.3114 13.7796 13.8647 14.3114 14.3864 13.8647 13.9453 13.7796 13.8647 13.3279 13.4142 13.8647 13.9453 13.4142 13.4952 14.3864 14.4624 13.9453 14.0215 14.4624 14.5416 14.0215 14.0958 13.9453 14.0215 13.4952 13.5715 14.0215 14.0958 13.5715 13.6443 15.3917 15.4754 14.9619 15.0421 15.4754 15.518 15.0421 15.1262 14.9619 15.0421 14.5416 14.6188 15.0421 15.1262 14.6188 14.6939 15.518 15.5497 15.1262 15.2126 15.5497 15.8045 15.2126 15.2214 15.1262 15.2126 14.6939 14.7652 15.2126 15.2214 14.7652 14.8376 14.5416 14.6188 14.0958 14.1689 14.6188 14.6939 14.1689 14.2408 14.0958 14.1689 13.6443 13.7139 14.1689 14.2408 13.7139 13.7823 14.6939 14.7652 14.2408 14.3104 14.7652 14.8376 14.3104 14.3777 14.2408 14.3104 13.7823 13.8518 14.3104 14.3777 13.8518 13.9211 15.8045 15.9721 15.2214 15.3317 15.9721 16.1166 15.3317 15.521 15.2214 15.3317 14.8376 14.8913 15.3317 15.521 14.8913 14.8402 16.1166 16.2796 15.521 15.6601 16.2796 16.4223 15.6601 15.8067 15.521 15.6601 14.8402 15.0528 15.6601 15.8067 15.0528 15.2161 14.8376 14.8913 14.3777 14.4451 14.8913 14.8402 14.4451 14.5222 14.3777 14.4451 13.9211 13.9917 14.4451 14.5222 13.9917 14.0658 14.8402 15.0528 14.5222 14.5666 15.0528 15.2161 14.5666 14.6322 14.5222 14.5666 14.0658 14.1375 14.5666 14.6322 14.1375 14.1807 16.4223 16.5625 15.8067 15.9528 16.5625 16.6992 15.9528 16.0888 15.8067 15.9528 15.2161 15.3578 15.9528 16.0888 15.3578 15.494 16.6992 16.8275 16.0888 16.2175 16.8275 16.9484 16.2175 16.3402 16.0888 16.2175 15.494 15.6198 16.2175 16.3402 15.6198 15.7426 15.2161 15.3578 14.6322 14.7834 15.3578 15.494 14.7834 14.9046 14.6322 14.7834 14.1807 14.1389 14.7834 14.9046 14.1389 14.3112 15.494 15.6198 14.9046 15.0291 15.6198 15.7426 15.0291 15.1567 14.9046 15.0291 14.3112 14.4586 15.0291 15.1567 14.4586 14.5813 16.9484 17.0641 16.3402 16.4585 17.0641 17.1761 16.4585 16.5729 16.3402 16.4585 15.7426 15.8629 16.4585 16.5729 15.8629 15.9791 17.1761 17.2847 16.5729 16.6832 17.2847 17.3895 16.6832 16.7892 16.5729 16.6832 15.9791 16.0912 16.6832 16.7892 16.0912 16.1987 15.7426 15.8629 15.1567 15.2781 15.8629 15.9791 15.2781 15.3961 15.1567 15.2781 14.5813 14.7053 15.2781 15.3961 14.7053 14.8259 15.9791 16.0912 15.3961 15.5097 16.0912 16.1987 15.5097 15.618 15.3961 15.5097 14.8259 14.9389 15.5097 15.618 14.9389 15.0469 17.3895 17.4901 16.7892 16.8911 17.4901 17.5866 16.8911 16.9887 16.7892 16.8911 16.1987 16.3016 16.8911 16.9887 16.3016 16.4003 17.5866 17.6788 16.9887 17.0822 17.6788 17.7669 17.0822 17.1717 16.9887 17.0822 16.4003 16.4949 17.0822 17.1717 16.4949 16.5857 16.1987 16.3016 15.618 15.7216 16.3016 16.4003 15.7216 15.8211 15.618 15.7216 15.0469 15.1506 15.7216 15.8211 15.1506 15.2506 16.4003 16.4949 15.8211 15.9166 16.4949 16.5857 15.9166 16.0085 15.8211 15.9166 15.2506 15.347 15.9166 16.0085 15.347 15.4399 17.7669 17.851 17.1717 17.2573 17.851 17.9312 17.2573 17.339 17.1717 17.2573 16.5857 16.6726 17.2573 17.339 16.6726 16.7557 17.9312 18.0076 17.339 17.4168 18.0076 18.0799 17.4168 17.4907 17.339 17.4168 16.7557 16.8351 17.4168 17.4907 16.8351 16.9105 16.5857 16.6726 16.0085 16.0967 16.6726 16.7557 16.0967 16.1813 16.0085 16.0967 15.4399 15.5296 16.0967 16.1813 15.5296 15.6157 16.7557 16.8351 16.1813 16.2622 16.8351 16.9105 16.2622 16.3393 16.1813 16.2622 15.6157 15.6982 16.2622 16.3393 15.6982 15.7768 18.0799 18.1483 17.4907 17.5607 18.1483 18.2127 17.5607 17.6267 17.4907 17.5607 16.9105 16.9821 17.5607 17.6267 16.9821 17.0498 18.2127 18.2729 17.6267 17.6887 18.2729 18.3291 17.6887 17.7468 17.6267 17.6887 17.0498 17.1136 17.6887 17.7468 17.1136 17.1736 16.9105 16.9821 16.3393 16.4125 16.9821 17.0498 16.4125 16.4818 16.3393 16.4125 15.7768 15.8515 16.4125 16.4818 15.8515 15.9225 17.0498 17.1136 16.4818 16.5474 17.1136 17.1736 16.5474 16.6092 16.4818 16.5474 15.9225 15.9897 16.5474 16.6092 15.9897 16.0533 18.3291 18.3811 17.7468 17.8009 18.3811 18.4291 17.8009 17.8511 17.7468 17.8009 17.1736 17.2297 17.8009 17.8511 17.2297 17.2821 18.4291 18.473 17.8511 17.8974 18.473 18.5129 17.8974 17.9397 17.8511 17.8974 17.2821 17.3306 17.8974 17.9397 17.3306 17.3754 17.1736 17.2297 16.6092 16.6673 17.2297 17.2821 16.6673 16.7217 16.6092 16.6673 16.0533 16.1133 16.6673 16.7217 16.1133 16.1697 17.2821 17.3306 16.7217 16.7725 17.3306 17.3754 16.7725 16.8196 16.7217 16.7725 16.1697 16.2226 16.7725 16.8196 16.2226 16.2719 18.5129 18.5488 17.9397 17.9783 18.5488 18.5807 17.9783 18.013 17.9397 17.9783 17.3754 17.4165 17.9783 18.013 17.4165 17.454 18.5807 18.6087 18.013 18.0441 18.6087 18.6329 18.0441 18.0714 18.013 18.0441 17.454 17.4878 18.0441 18.0714 17.4878 17.5182 17.3754 17.4165 16.8196 16.8631 17.4165 17.454 16.8631 16.9031 16.8196 16.8631 16.2719 16.3178 16.8631 16.9031 16.3178 16.3601 17.454 17.4878 16.9031 16.9396 17.4878 17.5182 16.9396 16.9726 16.9031 16.9396 16.3601 16.399 16.9396 16.9726 16.399 16.4346 18.6329 18.6534 18.0714 18.0953 18.6534 18.6703 18.0953 18.1158 18.0714 18.0953 17.5182 17.5451 18.0953 18.1158 17.5451 17.5687 18.6703 18.6838 18.1158 18.133 18.6838 18.6941 18.133 18.1471 18.1158 18.133 17.5687 17.5892 18.133 18.1471 17.5892 17.6067 17.5182 17.5451 16.9726 17.0024 17.5451 17.5687 17.0024 17.0289 16.9726 17.0024 16.4346 16.4669 17.0024 17.0289 16.4669 16.496 17.5687 17.5892 17.0289 17.0523 17.5892 17.6067 17.0523 17.0728 17.0289 17.0523 16.496 16.5221 17.0523 17.0728 16.5221 16.5452 18.6941 18.7014 18.1471 18.1583 18.7014 18.7059 18.1583 18.1668 18.1471 18.1583 17.6067 17.6213 18.1583 18.1668 17.6213 17.6333 18.7059 18.7079 18.1668 18.173 18.7079 18.7079 18.173 18.1769 18.1668 18.173 17.6333 17.6429 18.173 18.1769 17.6429 17.6503 17.6067 17.6213 17.0728 17.0904 17.6213 17.6333 17.0904 17.1054 17.0728 17.0904 16.5452 16.5654 17.0904 17.1054 16.5654 16.5829 17.6333 17.6429 17.1054 17.1179 17.6429 17.6503 17.1179 17.1281 17.1054 17.1179 16.5829 16.5979 17.1179 17.1281 16.5979 16.6105 18.7079 18.7059 18.1769 18.1791 18.7059 18.7026 18.1791 18.1796 18.1769 18.1791 17.6503 17.6557 18.1791 18.1796 17.6557 17.6595 18.7026 18.6982 18.1796 18.179 18.6982 18.6931 18.179 18.1774 18.1796 18.179 17.6595 17.6618 18.179 18.1774 17.6618 17.663 17.6503 17.6557 17.1281 17.1362 17.6557 17.6595 17.1362 17.1425 17.1281 17.1362 16.6105 16.6208 17.1362 17.1425 16.6208 16.6292 17.6595 17.6618 17.1425 17.1473 17.6618 17.663 17.1473 17.1506 17.1425 17.1473 16.6292 16.6358 17.1473 17.1506 16.6358 16.6408 18.6931 18.6878 18.1774 18.1753 18.6878 18.6827 18.1753 18.173 18.1774 18.1753 17.663 17.6634 18.1753 18.173 17.6634 17.6631 18.6827 18.6781 18.173 18.1707 18.6781 18.6744 18.1707 18.1686 18.173 18.1707 17.6631 17.6625 18.1707 18.1686 17.6625 17.6618 17.663 17.6634 17.1506 17.1528 17.6634 17.6631 17.1528 17.1542 17.1506 17.1528 16.6408 16.6445 17.1528 17.1542 16.6445 16.647 17.6631 17.6625 17.1542 17.1549 17.6625 17.6618 17.1549 17.1551 17.1542 17.1549 16.647 16.6487 17.1549 17.1551 16.6487 16.6497 18.6744 18.6718 18.1686 18.1671 18.6718 18.6703 18.1671 18.1661 18.1686 18.1671 17.6618 17.6612 18.1671 18.1661 17.6612 17.6607 18.6703 18.6698 18.1661 18.1656 18.6698 18.6