# vtk DataFile Version 3.0
#This file was generated by the deal.II library on 2016/3/9 at 8:35:03
ASCII
DATASET UNSTRUCTURED_GRID

POINTS 6608 double
0.125 0.375 0
0.25 0.375 0
0.125 0.5 0
0.25 0.5 0
1.75 0 0
1.875 0 0
1.75 0.125 0
1.875 0.125 0
1.875 0 0
2 0 0
1.875 0.125 0
2 0.125 0
0.125 0.5 0
0.25 0.5 0
0.125 0.625 0
0.25 0.625 0
1.75 0.875 0
1.875 0.875 0
1.75 1 0
1.875 1 0
1.875 0.875 0
2 0.875 0
1.875 1 0
2 1 0
0.125 0 0
0.1875 0 0
0.125 0.0625 0
0.1875 0.0625 0
0.1875 0 0
0.25 0 0
0.1875 0.0625 0
0.25 0.0625 0
0.25 0 0
0.3125 0 0
0.25 0.0625 0
0.3125 0.0625 0
0.3125 0 0
0.375 0 0
0.3125 0.0625 0
0.375 0.0625 0
0.375 0 0
0.4375 0 0
0.375 0.0625 0
0.4375 0.0625 0
0.4375 0.0625 0
0.5 0.0625 0
0.4375 0.125 0
0.5 0.125 0
0.125 0.3125 0
0.1875 0.3125 0
0.125 0.375 0
0.1875 0.375 0
0.1875 0.3125 0
0.25 0.3125 0
0.1875 0.375 0
0.25 0.375 0
0.25 0.3125 0
0.3125 0.3125 0
0.25 0.375 0
0.3125 0.375 0
0.625 0.4375 0
0.6875 0.4375 0
0.625 0.5 0
0.6875 0.5 0
0.6875 0.4375 0
0.75 0.4375 0
0.6875 0.5 0
0.75 0.5 0
0.75 0.4375 0
0.8125 0.4375 0
0.75 0.5 0
0.8125 0.5 0
1.1875 0 0
1.25 0 0
1.1875 0.0625 0
1.25 0.0625 0
1.25 0 0
1.3125 0 0
1.25 0.0625 0
1.3125 0.0625 0
1.3125 0 0
1.375 0 0
1.3125 0.0625 0
1.375 0.0625 0
1.375 0 0
1.4375 0 0
1.375 0.0625 0
1.4375 0.0625 0
1.4375 0 0
1.5 0 0
1.4375 0.0625 0
1.5 0.0625 0
1.3125 0.3125 0
1.375 0.3125 0
1.3125 0.375 0
1.375 0.375 0
1.5 0 0
1.5625 0 0
1.5 0.0625 0
1.5625 0.0625 0
1.5625 0 0
1.625 0 0
1.5625 0.0625 0
1.625 0.0625 0
1.5625 0.0625 0
1.625 0.0625 0
1.5625 0.125 0
1.625 0.125 0
1.75 0.125 0
1.8125 0.125 0
1.75 0.1875 0
1.8125 0.1875 0
1.8125 0.125 0
1.875 0.125 0
1.8125 0.1875 0
1.875 0.1875 0
0.125 0.625 0
0.1875 0.625 0
0.125 0.6875 0
0.1875 0.6875 0
0.1875 0.625 0
0.25 0.625 0
0.1875 0.6875 0
0.25 0.6875 0
0.25 0.625 0
0.3125 0.625 0
0.25 0.6875 0
0.3125 0.6875 0
0.125 0.9375 0
0.1875 0.9375 0
0.125 1 0
0.1875 1 0
0.1875 0.9375 0
0.25 0.9375 0
0.1875 1 0
0.25 1 0
0.25 0.9375 0
0.3125 0.9375 0
0.25 1 0
0.3125 1 0
0.3125 0.9375 0
0.375 0.9375 0
0.3125 1 0
0.375 1 0
0.4375 0.875 0
0.5 0.875 0
0.4375 0.9375 0
0.5 0.9375 0
0.375 0.9375 0
0.4375 0.9375 0
0.375 1 0
0.4375 1 0
0.625 0.5 0
0.6875 0.5 0
0.625 0.5625 0
0.6875 0.5625 0
0.6875 0.5 0
0.75 0.5 0
0.6875 0.5625 0
0.75 0.5625 0
0.75 0.5 0
0.8125 0.5 0
0.75 0.5625 0
0.8125 0.5625 0
1.3125 0.625 0
1.375 0.625 0
1.3125 0.6875 0
1.375 0.6875 0
1.1875 0.9375 0
1.25 0.9375 0
1.1875 1 0
1.25 1 0
1.25 0.9375 0
1.3125 0.9375 0
1.25 1 0
1.3125 1 0
1.3125 0.9375 0
1.375 0.9375 0
1.3125 1 0
1.375 1 0
1.375 0.9375 0
1.4375 0.9375 0
1.375 1 0
1.4375 1 0
1.4375 0.9375 0
1.5 0.9375 0
1.4375 1 0
1.5 1 0
1.5625 0.875 0
1.625 0.875 0
1.5625 0.9375 0
1.625 0.9375 0
1.5 0.9375 0
1.5625 0.9375 0
1.5 1 0
1.5625 1 0
1.5625 0.9375 0
1.625 0.9375 0
1.5625 1 0
1.625 1 0
1.75 0.8125 0
1.8125 0.8125 0
1.75 0.875 0
1.8125 0.875 0
1.8125 0.8125 0
1.875 0.8125 0
1.8125 0.875 0
1.875 0.875 0
0 0 0
0.0625 0 0
0 0.0625 0
0.0625 0.0625 0
0.0625 0 0
0.125 0 0
0.0625 0.0625 0
0.125 0.0625 0
0 0.0625 0
0.0625 0.0625 0
0 0.125 0
0.0625 0.125 0
0.0625 0.0625 0
0.125 0.0625 0
0.0625 0.125 0
0.125 0.125 0
0 0.375 0
0.0625 0.375 0
0 0.4375 0
0.0625 0.4375 0
0.0625 0.375 0
0.125 0.375 0
0.0625 0.4375 0
0.125 0.4375 0
0 0.4375 0
0.0625 0.4375 0
0 0.5 0
0.0625 0.5 0
0.0625 0.4375 0
0.125 0.4375 0
0.0625 0.5 0
0.125 0.5 0
0.25 0.375 0
0.3125 0.375 0
0.25 0.4375 0
0.3125 0.4375 0
0.3125 0.375 0
0.375 0.375 0
0.3125 0.4375 0
0.375 0.4375 0
0.25 0.4375 0
0.3125 0.4375 0
0.25 0.5 0
0.3125 0.5 0
0.3125 0.4375 0
0.375 0.4375 0
0.3125 0.5 0
0.375 0.5 0
0.375 0.375 0
0.4375 0.375 0
0.375 0.4375 0
0.4375 0.4375 0
0.4375 0.375 0
0.5 0.375 0
0.4375 0.4375 0
0.5 0.4375 0
0.375 0.4375 0
0.4375 0.4375 0
0.375 0.5 0
0.4375 0.5 0
0.4375 0.4375 0
0.5 0.4375 0
0.4375 0.5 0
0.5 0.5 0
0.5 0.375 0
0.5625 0.375 0
0.5 0.4375 0
0.5625 0.4375 0
0.5625 0.375 0
0.625 0.375 0
0.5625 0.4375 0
0.625 0.4375 0
0.5 0.4375 0
0.5625 0.4375 0
0.5 0.5 0
0.5625 0.5 0
0.5625 0.4375 0
0.625 0.4375 0
0.5625 0.5 0
0.625 0.5 0
1.625 0 0
1.6875 0 0
1.625 0.0625 0
1.6875 0.0625 0
1.6875 0 0
1.75 0 0
1.6875 0.0625 0
1.75 0.0625 0
1.625 0.0625 0
1.6875 0.0625 0
1.625 0.125 0
1.6875 0.125 0
1.6875 0.0625 0
1.75 0.0625 0
1.6875 0.125 0
1.75 0.125 0
1.875 0.125 0
1.9375 0.125 0
1.875 0.1875 0
1.9375 0.1875 0
1.9375 0.125 0
2 0.125 0
1.9375 0.1875 0
2 0.1875 0
1.875 0.1875 0
1.9375 0.1875 0
1.875 0.25 0
1.9375 0.25 0
1.9375 0.1875 0
2 0.1875 0
1.9375 0.25 0
2 0.25 0
0 0.5 0
0.0625 0.5 0
0 0.5625 0
0.0625 0.5625 0
0.0625 0.5 0
0.125 0.5 0
0.0625 0.5625 0
0.125 0.5625 0
0 0.5625 0
0.0625 0.5625 0
0 0.625 0
0.0625 0.625 0
0.0625 0.5625 0
0.125 0.5625 0
0.0625 0.625 0
0.125 0.625 0
0.25 0.5 0
0.3125 0.5 0
0.25 0.5625 0
0.3125 0.5625 0
0.3125 0.5 0
0.375 0.5 0
0.3125 0.5625 0
0.375 0.5625 0
0.25 0.5625 0
0.3125 0.5625 0
0.25 0.625 0
0.3125 0.625 0
0.3125 0.5625 0
0.375 0.5625 0
0.3125 0.625 0
0.375 0.625 0
0.375 0.5 0
0.4375 0.5 0
0.375 0.5625 0
0.4375 0.5625 0
0.4375 0.5 0
0.5 0.5 0
0.4375 0.5625 0
0.5 0.5625 0
0.375 0.5625 0
0.4375 0.5625 0
0.375 0.625 0
0.4375 0.625 0
0.4375 0.5625 0
0.5 0.5625 0
0.4375 0.625 0
0.5 0.625 0
0 0.875 0
0.0625 0.875 0
0 0.9375 0
0.0625 0.9375 0
0.0625 0.875 0
0.125 0.875 0
0.0625 0.9375 0
0.125 0.9375 0
0 0.9375 0
0.0625 0.9375 0
0 1 0
0.0625 1 0
0.0625 0.9375 0
0.125 0.9375 0
0.0625 1 0
0.125 1 0
0.5 0.5 0
0.5625 0.5 0
0.5 0.5625 0
0.5625 0.5625 0
0.5625 0.5 0
0.625 0.5 0
0.5625 0.5625 0
0.625 0.5625 0
0.5 0.5625 0
0.5625 0.5625 0
0.5 0.625 0
0.5625 0.625 0
0.5625 0.5625 0
0.625 0.5625 0
0.5625 0.625 0
0.625 0.625 0
1.625 0.875 0
1.6875 0.875 0
1.625 0.9375 0
1.6875 0.9375 0
1.6875 0.875 0
1.75 0.875 0
1.6875 0.9375 0
1.75 0.9375 0
1.625 0.9375 0
1.6875 0.9375 0
1.625 1 0
1.6875 1 0
1.6875 0.9375 0
1.75 0.9375 0
1.6875 1 0
1.75 1 0
1.875 0.75 0
1.9375 0.75 0
1.875 0.8125 0
1.9375 0.8125 0
1.9375 0.75 0
2 0.75 0
1.9375 0.8125 0
2 0.8125 0
1.875 0.8125 0
1.9375 0.8125 0
1.875 0.875 0
1.9375 0.875 0
1.9375 0.8125 0
2 0.8125 0
1.9375 0.875 0
2 0.875 0
0.125 0.0625 0
0.15625 0.0625 0
0.125 0.09375 0
0.15625 0.09375 0
0.15625 0.0625 0
0.1875 0.0625 0
0.15625 0.09375 0
0.1875 0.09375 0
0.125 0.09375 0
0.15625 0.09375 0
0.125 0.125 0
0.15625 0.125 0
0.15625 0.09375 0
0.1875 0.09375 0
0.15625 0.125 0
0.1875 0.125 0
0.1875 0.0625 0
0.21875 0.0625 0
0.1875 0.09375 0
0.21875 0.09375 0
0.21875 0.0625 0
0.25 0.0625 0
0.21875 0.09375 0
0.25 0.09375 0
0.1875 0.09375 0
0.21875 0.09375 0
0.1875 0.125 0
0.21875 0.125 0
0.21875 0.09375 0
0.25 0.09375 0
0.21875 0.125 0
0.25 0.125 0
0 0.125 0
0.03125 0.125 0
0 0.15625 0
0.03125 0.15625 0
0.03125 0.125 0
0.0625 0.125 0
0.03125 0.15625 0
0.0625 0.15625 0
0 0.15625 0
0.03125 0.15625 0
0 0.1875 0
0.03125 0.1875 0
0.03125 0.15625 0
0.0625 0.15625 0
0.03125 0.1875 0
0.0625 0.1875 0
0.0625 0.125 0
0.09375 0.125 0
0.0625 0.15625 0
0.09375 0.15625 0
0.09375 0.125 0
0.125 0.125 0
0.09375 0.15625 0
0.125 0.15625 0
0.0625 0.15625 0
0.09375 0.15625 0
0.0625 0.1875 0
0.09375 0.1875 0
0.09375 0.15625 0
0.125 0.15625 0
0.09375 0.1875 0
0.125 0.1875 0
0 0.1875 0
0.03125 0.1875 0
0 0.21875 0
0.03125 0.21875 0
0.03125 0.1875 0
0.0625 0.1875 0
0.03125 0.21875 0
0.0625 0.21875 0
0 0.21875 0
0.03125 0.21875 0
0 0.25 0
0.03125 0.25 0
0.03125 0.21875 0
0.0625 0.21875 0
0.03125 0.25 0
0.0625 0.25 0
0.0625 0.1875 0
0.09375 0.1875 0
0.0625 0.21875 0
0.09375 0.21875 0
0.09375 0.1875 0
0.125 0.1875 0
0.09375 0.21875 0
0.125 0.21875 0
0.0625 0.21875 0
0.09375 0.21875 0
0.0625 0.25 0
0.09375 0.25 0
0.09375 0.21875 0
0.125 0.21875 0
0.09375 0.25 0
0.125 0.25 0
0.125 0.125 0
0.15625 0.125 0
0.125 0.15625 0
0.15625 0.15625 0
0.15625 0.125 0
0.1875 0.125 0
0.15625 0.15625 0
0.1875 0.15625 0
0.125 0.15625 0
0.15625 0.15625 0
0.125 0.1875 0
0.15625 0.1875 0
0.15625 0.15625 0
0.1875 0.15625 0
0.15625 0.1875 0
0.1875 0.1875 0
0.1875 0.125 0
0.21875 0.125 0
0.1875 0.15625 0
0.21875 0.15625 0
0.21875 0.125 0
0.25 0.125 0
0.21875 0.15625 0
0.25 0.15625 0
0.1875 0.15625 0
0.21875 0.15625 0
0.1875 0.1875 0
0.21875 0.1875 0
0.21875 0.15625 0
0.25 0.15625 0
0.21875 0.1875 0
0.25 0.1875 0
0.125 0.1875 0
0.15625 0.1875 0
0.125 0.21875 0
0.15625 0.21875 0
0.15625 0.1875 0
0.1875 0.1875 0
0.15625 0.21875 0
0.1875 0.21875 0
0.125 0.21875 0
0.15625 0.21875 0
0.125 0.25 0
0.15625 0.25 0
0.15625 0.21875 0
0.1875 0.21875 0
0.15625 0.25 0
0.1875 0.25 0
0.1875 0.1875 0
0.21875 0.1875 0
0.1875 0.21875 0
0.21875 0.21875 0
0.21875 0.1875 0
0.25 0.1875 0
0.21875 0.21875 0
0.25 0.21875 0
0.1875 0.21875 0
0.21875 0.21875 0
0.1875 0.25 0
0.21875 0.25 0
0.21875 0.21875 0
0.25 0.21875 0
0.21875 0.25 0
0.25 0.25 0
0.25 0.0625 0
0.28125 0.0625 0
0.25 0.09375 0
0.28125 0.09375 0
0.28125 0.0625 0
0.3125 0.0625 0
0.28125 0.09375 0
0.3125 0.09375 0
0.25 0.09375 0
0.28125 0.09375 0
0.25 0.125 0
0.28125 0.125 0
0.28125 0.09375 0
0.3125 0.09375 0
0.28125 0.125 0
0.3125 0.125 0
0.3125 0.0625 0
0.34375 0.0625 0
0.3125 0.09375 0
0.34375 0.09375 0
0.34375 0.0625 0
0.375 0.0625 0
0.34375 0.09375 0
0.375 0.09375 0
0.3125 0.09375 0
0.34375 0.09375 0
0.3125 0.125 0
0.34375 0.125 0
0.34375 0.09375 0
0.375 0.09375 0
0.34375 0.125 0
0.375 0.125 0
0.4375 0 0
0.46875 0 0
0.4375 0.03125 0
0.46875 0.03125 0
0.46875 0 0
0.5 0 0
0.46875 0.03125 0
0.5 0.03125 0
0.4375 0.03125 0
0.46875 0.03125 0
0.4375 0.0625 0
0.46875 0.0625 0
0.46875 0.03125 0
0.5 0.03125 0
0.46875 0.0625 0
0.5 0.0625 0
0.375 0.0625 0
0.40625 0.0625 0
0.375 0.09375 0
0.40625 0.09375 0
0.40625 0.0625 0
0.4375 0.0625 0
0.40625 0.09375 0
0.4375 0.09375 0
0.375 0.09375 0
0.40625 0.09375 0
0.375 0.125 0
0.40625 0.125 0
0.40625 0.09375 0
0.4375 0.09375 0
0.40625 0.125 0
0.4375 0.125 0
0.25 0.125 0
0.28125 0.125 0
0.25 0.15625 0
0.28125 0.15625 0
0.28125 0.125 0
0.3125 0.125 0
0.28125 0.15625 0
0.3125 0.15625 0
0.25 0.15625 0
0.28125 0.15625 0
0.25 0.1875 0
0.28125 0.1875 0
0.28125 0.15625 0
0.3125 0.15625 0
0.28125 0.1875 0
0.3125 0.1875 0
0.3125 0.125 0
0.34375 0.125 0
0.3125 0.15625 0
0.34375 0.15625 0
0.34375 0.125 0
0.375 0.125 0
0.34375 0.15625 0
0.375 0.15625 0
[...]
POINT_DATA 6608
SCALARS x_displacement double 1
LOOKUP_TABLE default
-0.487655 -1.42867 -1.15699e-10 -9.38604e-12 26.677 26.8401 19.7375 20.3389 26.8401 26.767 20.3389 20.9956 -1.15699e-10 -9.38604e-12 0.487655 1.42867 -19.7375 -20.3389 -26.677 -26.8401 -20.3389 -20.9956 -26.8401 -26.767 4.10696 5.71164 2.16882 3.19911 5.71164 6.97309 3.19911 4.09967 6.97309 7.88937 4.09967 4.88547 7.88937 8.53966 4.88547 5.56486 8.53966 9.01065 5.56486 6.14523 6.14523 6.67942 3.52338 4.1958 -2.02035 -2.36166 -0.487655 -0.958162 -2.36166 -3.06078 -0.958162 -1.42867 -3.06078 -4.1868 -1.42867 -2.28592 -6.11822 -2.92472 -1.12081e-09 -1.34038e-09 -2.92472 -1.8665 -1.34038e-09 -7.28209e-10 -1.8665 -2.26443 -7.28209e-10 6.98186e-11 16.4549 17.4194 13.3962 14.4842 17.4194 18.3763 14.4842 15.8432 18.3763 19.5923 15.8432 16.9715 19.5923 20.9077 16.9715 17.9599 20.9077 22.2995 17.9599 18.9624 5.89801 6.44269 3.51227 3.88215 22.2995 23.6621 18.9624 20.0412 23.6621 24.8863 20.0412 21.108 20.0412 21.108 16.4007 17.3459 19.7375 20.0382 16.3437 17.2882 20.0382 20.3389 17.2882 19.3033 0.487655 0.958162 2.02035 2.36166 0.958162 1.42867 2.36166 3.06078 1.42867 2.28592 3.06078 4.1868 -2.16882 -3.19911 -4.10696 -5.71164 -3.19911 -4.09967 -5.71164 -6.97309 -4.09967 -4.88547 -6.97309 -7.88937 -4.88547 -5.56486 -7.88937 -8.53966 -3.52338 -4.1958 -6.14523 -6.67942 -5.56486 -6.14523 -8.53966 -9.01065 -1.12081e-09 -1.34038e-09 6.11822 2.92472 -1.34038e-09 -7.28209e-10 2.92472 1.8665 -7.28209e-10 6.98186e-11 1.8665 2.26443 -3.51227 -3.88215 -5.89801 -6.44269 -13.3962 -14.4842 -16.4549 -17.4194 -14.4842 -15.8432 -17.4194 -18.3763 -15.8432 -16.9715 -18.3763 -19.5923 -16.9715 -17.9599 -19.5923 -20.9077 -17.9599 -18.9624 -20.9077 -22.2995 -16.4007 -17.3459 -20.0412 -21.108 -18.9624 -20.0412 -22.2995 -23.6621 -20.0412 -21.108 -23.6621 -24.8863 -16.3437 -17.2882 -19.7375 -20.0382 -17.2882 -19.3033 -20.0382 -20.3389 0 2.2099 0 1.03556 2.2099 4.10696 1.03556 2.16882 0 1.03556 0 0.212545 1.03556 2.16882 0.212545 0.515539 0 -0.171612 0 -0.107976 -0.171612 -0.487655 -0.107976 -0.243828 0 -0.107976 0 -3.91357e-11 -0.107976 -0.243828 -3.91357e-11 -1.15699e-10 -1.42867 -2.28592 -0.714334 -1.05798 -2.28592 -2.75121 -1.05798 -1.3668 -0.714334 -1.05798 -9.38604e-12 9.28478e-11 -1.05798 -1.3668 9.28478e-11 1.12822e-10 -2.75121 -3.11199 -1.3668 -1.88748 -3.11199 -3.5148 -1.88748 -3.07977 -1.3668 -1.88748 1.12822e-10 2.35587e-10 -1.88748 -3.07977 2.35587e-10 4.32944e-10 -3.5148 -3.59455 -3.07977 -5.89184 -3.59455 -3.52986 -5.89184 -6.11822 -3.07977 -5.89184 4.32944e-10 -1.09731e-09 -5.89184 -6.11822 -1.09731e-09 -1.12081e-09 24.8863 25.9151 21.108 22.1774 25.9151 26.677 22.1774 23.2072 21.108 22.1774 17.3459 18.6258 22.1774 23.2072 18.6258 19.7375 20.3389 20.6672 19.3033 18.7483 20.6672 20.9956 18.7483 18.347 19.3033 18.7483 15.1005 15.2652 18.7483 18.347 15.2652 15.0764 0 -3.91357e-11 0 0.107976 -3.91357e-11 -1.15699e-10 0.107976 0.243828 0 0.107976 0 0.171612 0.107976 0.243828 0.171612 0.487655 -9.38604e-12 9.28478e-11 0.714334 1.05798 9.28478e-11 1.12822e-10 1.05798 1.3668 0.714334 1.05798 1.42867 2.28592 1.05798 1.3668 2.28592 2.75121 1.12822e-10 2.35587e-10 1.3668 1.88748 2.35587e-10 4.32944e-10 1.88748 3.07977 1.3668 1.88748 2.75121 3.11199 1.88748 3.07977 3.11199 3.5148 0 -0.212545 0 -1.03556 -0.212545 -0.515539 -1.03556 -2.16882 0 -1.03556 0 -2.2099 -1.03556 -2.16882 -2.2099 -4.10696 4.32944e-10 -1.09731e-09 3.07977 5.89184 -1.09731e-09 -1.12081e-09 5.89184 6.11822 3.07977 5.89184 3.5148 3.59455 5.89184 6.11822 3.59455 3.52986 -17.3459 -18.6258 -21.108 -22.1774 -18.6258 -19.7375 -22.1774 -23.2072 -21.108 -22.1774 -24.8863 -25.9151 -22.1774 -23.2072 -25.9151 -26.677 -15.1005 -15.2652 -19.3033 -18.7483 -15.2652 -15.0764 -18.7483 -18.347 -19.3033 -18.7483 -20.3389 -20.6672 -18.7483 -18.347 -20.6672 -20.9956 2.16882 2.68396 1.34218 1.70296 2.68396 3.19911 1.70296 2.05685 1.34218 1.70296 0.515539 0.682428 1.70296 2.05685 0.682428 0.894794 3.19911 3.64939 2.05685 2.41645 3.64939 4.09967 2.41645 2.77765 2.05685 2.41645 0.894794 1.15074 2.41645 2.77765 1.15074 1.44692 0 0.106273 0 -0.0637631 0.106273 0.212545 -0.0637631 -0.161801 0 -0.0637631 0 -0.181103 -0.0637631 -0.161801 -0.181103 -0.423033 0.212545 0.364042 -0.161801 -0.275181 0.364042 0.515539 -0.275181 -0.348007 -0.161801 -0.275181 -0.423033 -0.764031 -0.275181 -0.348007 -0.764031 -1.16611 0 -0.181103 0 -0.244306 -0.181103 -0.423033 -0.244306 -0.54238 0 -0.244306 0 -0.306065 -0.244306 -0.54238 -0.306065 -0.586429 -0.423033 -0.764031 -0.54238 -0.998717 -0.764031 -1.16611 -0.998717 -1.79 -0.54238 -0.998717 -0.586429 -0.928395 -0.998717 -1.79 -0.928395 -1.85572 0.515539 0.682428 -0.348007 -0.386943 0.682428 0.894794 -0.386943 -0.33195 -0.348007 -0.386943 -1.16611 -1.46109 -0.386943 -0.33195 -1.46109 -1.59534 0.894794 1.15074 -0.33195 -0.180892 1.15074 1.44692 -0.180892 0.0592391 -0.33195 -0.180892 -1.59534 -1.55563 -0.180892 0.0592391 -1.55563 -1.3633 -1.16611 -1.46109 -1.79 -2.51071 -1.46109 -1.59534 -2.51071 -2.86189 -1.79 -2.51071 -1.85572 -3.45026 -2.51071 -2.86189 -3.45026 -4.07225 -1.59534 -1.55563 -2.86189 -2.94401 -1.55563 -1.3633 -2.94401 -2.79267 -2.86189 -2.94401 -4.07225 -4.29694 -2.94401 -2.79267 -4.29694 -4.17213 4.09967 4.49257 2.77765 3.13934 4.49257 4.88547 3.13934 3.49309 2.77765 3.13934 1.44692 1.77399 3.13934 3.49309 1.77399 2.12361 4.88547 5.22516 3.49309 3.83993 5.22516 5.56486 3.83993 4.17309 3.49309 3.83993 2.12361 2.48058 3.83993 4.17309 2.48058 2.83731 9.01065 9.20385 7.57794 7.77887 9.20385 9.34521 7.77887 7.96081 7.57794 7.77887 6.14523 6.41232 7.77887 7.96081 6.41232 6.67942 5.56486 5.85504 4.17309 4.50548 5.85504 6.14523 4.50548 4.8343 4.17309 4.50548 2.83731 3.18595 4.50548 4.8343 3.18595 3.52338 1.44692 1.77399 0.0592391 0.376329 1.77399 2.12361 0.376329 0.753239 0.0592391 0.376329 -1.3633 -1.03429 0.376329 0.753239 -1.03429 -0.582927 2.12361 2.48058 0.753239 1.16349 2.48058 2.83731 1.16349 1.56175 0.753239 1.16349 -0.582927 -0.0699806 1.16349 1.56175 -0.0699806 0.365271 -1.3633 -1.03429 -2.79267 -2.42278 -1.03429 -0.582927 -2.42278 -1.81072 -2.79267 -2.42278 -4.17213 -3.72019 -2.42278 -1.81072 -3.72019 -2.81212 -0.582927 -0.0699806 -1.81072 -1.20047 -0.0699806 0.365271 -1.20047 -0.808117 -1.81072 -1.20047 -2.81212 -2.27778 -1.20047 -0.808117 -2.27778 -2.02599 2.83731 3.18595 1.56175 1.92382 3.18595 3.52338 1.92382 2.26476 1.56175 1.92382 0.365271 0.703992 1.92382 2.26476 0.703992 1.00512 3.52338 3.85959 2.26476 2.60279 3.85959 4.1958 2.60279 2.94407 2.26476 2.60279 1.00512 1.32071 2.60279 2.94407 1.32071 1.66325 0.365271 0.703992 -0.808117 -0.540998 0.703992 1.00512 -0.540998 -0.293279 -0.808117 -0.540998 -2.02599 -1.83708 -0.540998 -0.293279 -1.83708 -1.6343 1.00512 1.32071 -0.293279 -0.00591906 1.32071 1.66325 -0.00591906 0.343537 -0.293279 -0.00591906 -1.6343 -1.36149 -0.00591906 0.343537 -1.36149 -0.992686 0 -0.306065 0 -0.420569 -0.306065 -0.586429 -0.420569 -0.640889 0 -0.420569 0 -0.577156 -0.420569 -0.640889 -0.577156 -0.663612 -0.586429 -0.928395 -0.640889 -0.741755 -0.928395 -1.85572 -0.741755 0.00182864 -0.640889 -0.741755 -0.663612 -0.900392 -0.741755 0.00182864 -0.900392 -2.02035 0 -0.577156 0 -0.0692032 -0.577156 -0.663612 -0.0692032 -0.262143 0 -0.0692032 0 -0.0858062 -0.0692032 -0.262143 -0.0858062 -0.171612 -0.663612 -0.900392 -0.262143 -0.697023 -0.900392 -2.02035 -0.697023 -1.254 -0.262143 -0.697023 -0.171612 -0.329634 -0.697023 -1.254 -0.329634 -0.487655 -1.85572 -3.45026 0.00182864 -1.31184 -3.45026 -4.07225 -1.31184 -2.63243 0.00182864 -1.31184 -2.02035 -2.19101 -1.31184 -2.63243 -2.19101 -2.36166 -4.07225 -4.29694 -2.63243 -3.37874 -4.29694 -4.17213 -3.37874 -3.90595 -2.63243 -3.37874 -2.36166 -2.71122 -3.37874 -3.90595 -2.71122 -3.06078 -4.17213 -3.72019 -3.90595 -3.63192 -3.72019 -2.81212 -3.63192 -3.18952 -3.90595 -3.63192 -3.06078 -3.62379 -3.63192 -3.18952 -3.62379 -4.1868 -2.81212 -2.27778 -3.18952 -3.39639 -2.27778 -2.02599 -3.39639 -3.30833 -3.18952 -3.39639 -4.1868 -4.6779 -3.39639 -3.30833 -4.6779 -4.6096 -4.1868 -4.6779 -3.23636 -3.42687 -4.6779 -4.6096 -3.42687 -3.58091 -3.23636 -3.42687 -2.28592 -2.51857 -3.42687 -3.58091 -2.51857 -2.75121 -2.02599 -1.83708 -3.30833 -3.17667 -1.83708 -1.6343 -3.17667 -3.0031 -3.30833 -3.17667 -4.6096 -4.5293 -3.17667 -3.0031 -4.5293 -4.37155 -1.6343 -1.36149 -3.0031 -2.7266 -1.36149 -0.992686 -2.7266 -2.32126 -3.0031 -2.7266 -4.37155 -4.07096 -2.7266 -2.32126 -4.07096 -3.58664 -4.6096 -4.5293 -3.58091 -3.64574 -4.5293 -4.37155 -3.64574 -3.62507 -3.58091 -3.64574 -2.75121 -2.9316 -3.64574 -3.62507 -2.9316 -3.11199 -4.37155 -4.07096 -3.62507 -3.5089 -4.07096 -3.58664 -3.5089 -3.23933 -3.62507 -3.5089 -3.11199 -3.3134 -3.5089 -3.23933 -3.3134 -3.5148 9.34521 9.4571 7.96081 8.12694 9.4571 9.56361 8.12694 8.29346 7.96081 8.12694 6.67942 6.91076 8.12694 8.29346 6.91076 7.15627 9.56361 9.68056 8.29346 8.49114 9.68056 9.83092 8.49114 8.77289 8.29346 8.49114 7.15627 7.44174 8.49114 8.77289 7.44174 7.79647 6.67942 6.91076 5.43761 5.72767 6.91076 7.15627 5.72767 6.02692 5.43761 5.72767 4.1958 4.52314 5.72767 6.02692 4.52314 4.85037 7.15627 7.44174 6.02692 6.34684 7.44174 7.79647 6.34684 6.69402 6.02692 6.34684 4.85037 5.1813 6.34684 6.69402 5.1813 5.51742 9.83092 10.1069 8.77289 9.2239 10.1069 10.7876 9.2239 9.78942 8.77289 9.2239 7.79647 8.21638 9.2239 9.78942 8.21638 8.64378 10.7876 11.4679 9.78942 10.2329 11.4679 11.7576 10.2329 10.5057 9.78942 10.2329 8.64378 8.99518 10.2329 10.5057 8.99518 9.25879 7.79647 8.21638 6.69402 7.0611 8.21638 8.64378 7.0611 7.42349 6.69402 7.0611 5.51742 5.85891 7.0611 7.42349 5.85891 6.19678 8.64378 8.99518 7.42349 7.74763 8.99518 9.25879 7.74763 8.02411 7.42349 7.74763 6.19678 6.52098 7.74763 8.02411 6.52098 6.82375 4.1958 4.52314 2.94407 3.29024 4.52314 4.85037 3.29024 3.63524 2.94407 3.29024 1.66325 2.02657 3.29024 3.63524 2.02657 2.39945 4.85037 5.1813 3.63524 3.97801 5.1813 5.51742 3.97801 4.31887 3.63524 3.97801 2.39945 2.77069 3.97801 4.31887 2.77069 3.13485 1.66325 2.02657 0.343537 0.740881 2.02657 2.39945 0.740881 1.16508 0.343537 0.740881 -0.992686 -0.541655 0.740881 1.16508 -0.541655 -0.0287985 2.39945 2.77069 1.16508 1.59631 2.77069 3.13485 1.59631 2.00092 1.16508 1.59631 -0.0287985 0.500214 1.59631 2.00092 0.500214 0.935182 5.51742 5.85891 4.31887 4.65966 5.85891 6.19678 4.65966 5.00005 4.31887 4.65966 3.13485 3.48894 4.65966 5.00005 3.48894 3.83705 6.19678 6.52098 5.00005 5.33655 6.52098 6.82375 5.33655 5.66597 5.00005 5.33655 3.83705 4.18183 5.33655 5.66597 4.18183 4.52452 3.13485 3.48894 2.00092 2.36174 3.48894 3.83705 2.36174 2.69741 2.00092 2.36174 0.935182 1.26678 2.36174 2.69741 1.26678 1.5577 3.83705 4.18183 2.69741 3.03275 4.18183 4.52452 3.03275 3.37368 2.69741 3.03275 1.5577 1.8609 3.03275 3.37368 1.8609 2.19 11.7576 11.9279 10.5057 10.6868 11.9279 12.0435 10.6868 10.8351 10.5057 10.6868 9.25879 9.46483 10.6868 10.8351 9.46483 9.65183 12.0435 12.1354 10.8351 10.9688 12.1354 12.2187 10.9688 11.0783 10.8351 10.9688 9.65183 9.84643 10.9688 11.0783 9.84643 10.088 9.25879 9.46483 8.02411 8.26678 9.46483 9.65183 8.26678 8.50373 8.02411 8.26678 6.82375 7.10953 8.26678 8.50373 7.10953 7.40069 9.65183 9.84643 8.50373 8.77043 9.84643 10.088 8.77043 9.11181 8.50373 8.77043 7.40069 7.72262 8.77043 9.11181 7.72262 8.10207 12.2187 12.4436 11.0783 11.0163 12.4436 13.0283 11.0163 10.3611 11.0783 11.0163 10.088 10.4819 11.0163 10.3611 10.4819 11.1687 13.0283 13.2596 10.3611 11.8221 13.2596 13.6853 11.8221 12.6389 10.3611 11.8221 11.1687 11.7691 11.8221 12.6389 11.7691 12.0652 10.088 10.4819 9.11181 9.58851 10.4819 11.1687 9.58851 10.1358 9.11181 9.58851 8.10207 8.53769 9.58851 10.1358 8.53769 8.97774 11.1687 11.7691 10.1358 10.5667 11.7691 12.0652 10.5667 10.8497 10.1358 10.5667 8.97774 9.34366 10.5667 10.8497 9.34366 9.62602 6.82375 7.10953 5.66597 5.98918 7.10953 7.40069 5.98918 6.31724 5.66597 5.98918 4.52452 4.86606 5.98918 6.31724 4.86606 5.20814 7.40069 7.72262 6.31724 6.66045 7.72262 8.10207 6.66045 7.0269 6.31724 6.66045 5.20814 5.55362 6.66045 7.0269 5.55362 5.90324 4.52452 4.86606 3.37368 3.71994 4.86606 5.20814 3.71994 4.06845 3.37368 3.71994 2.19 2.54119 3.71994 4.06845 2.54119 2.90636 5.20814 5.55362 4.06845 4.41626 5.55362 5.90324 4.41626 4.76268 4.06845 4.41626 2.90636 3.27422 4.41626 4.76268 3.27422 3.63748 8.10207 8.53769 7.0269 7.41148 8.53769 8.97774 7.41148 7.78964 7.0269 7.41148 5.90324 6.2567 7.41148 7.78964 6.2567 6.60461 8.97774 9.34366 7.78964 8.1277 9.34366 9.62602 8.1277 8.41963 7.78964 8.1277 6.60461 6.93679 8.1277 8.41963 6.93679 7.24663 5.90324 6.2567 4.76268 5.10846 6.2567 6.60461 5.10846 5.45246 4.76268 5.10846 3.63748 3.99101 5.10846 5.45246 3.99101 4.33777 6.60461 6.93679 5.45246 5.79057 6.93679 7.24663 5.79057 6.11901 5.45246 5.79057 4.33777 4.67985 5.79057 6.11901 4.67985 5.01781 -0.992686 -0.541655 -2.32126 -1.78766 -0.541655 -0.0287985 -1.78766 -1.1215 -2.32126 -1.78766 -3.58664 -2.93895 -1.78766 -1.1215 -2.93895 -2.01878 -0.0287985 0.500214 -1.1215 -0.503416 0.500214 0.935182 -0.503416 -0.111411 -1.1215 -0.503416 -2.01878 -1.45514 -0.503416 -0.111411 -1.45514 -1.20155 -3.58664 -2.93895 -3.23933 -3.01682 -2.93895 -2.01878 -3.01682 -2.34272 -3.23933 -3.01682 -3.5148 -3.55468 -3.01682 -2.34272 -3.55468 -3.59455 -2.01878 -1.45514 -2.34272 -2.43519 -1.45514 -1.20155 -2.43519 -2.35697 -2.34272 -2.43519 -3.59455 -3.56221 -2.43519 -2.35697 -3.56221 -3.52986 0.935182 1.26678 -0.111411 0.146234 1.26678 1.5577 0.146234 0.378749 -0.111411 0.146234 -1.20155 -1.02521 0.146234 0.378749 -1.02521 -0.843473 1.5577 1.8609 0.378749 0.643895 1.8609 2.19 0.643895 0.963493 0.378749 0.643895 -0.843473 -0.604872 0.643895 0.963493 -0.604872 -0.285634 -1.20155 -1.02521 -2.35697 -2.24303 -1.02521 -0.843473 -2.24303 -2.09467 -2.35697 -2.24303 -3.52986 -3.48082 -2.24303 -2.09467 -3.48082 -3.35033 -0.843473 -0.604872 -2.09467 -1.86732 -0.604872 -0.285634 -1.86732 -1.53647 -2.09467 -1.86732 -3.35033 -3.11576 -1.86732 -1.53647 -3.11576 -2.74678 -3.52986 -3.48082 -4.82404 -4.11783 -3.48082 -3.35033 -4.11783 -3.46343 -4.82404 -4.11783 -6.11822 -4.52147 -4.11783 -3.46343 -4.52147 -2.92472 -3.35033 -3.11576 -3.46343 -2.82886 -3.11576 -2.74678 -2.82886 -2.46657 -3.46343 -2.82886 -2.92472 -2.39561 -2.82886 -2.46657 -2.39561 -1.8665 2.19 2.54119 0.963493 1.33241 2.54119 2.90636 1.33241 1.73845 0.963493 1.33241 -0.285634 0.118112 1.33241 1.73845 0.118112 0.603359 2.90636 3.27422 1.73845 2.16128 3.27422 3.63748 2.16128 2.56067 1.73845 2.16128 0.603359 1.11995 2.16128 2.56067 1.11995 1.54804 -0.285634 0.118112 -1.53647 -1.07298 0.118112 0.603359 -1.07298 -0.437487 -1.53647 -1.07298 -2.74678 -2.18333 -1.07298 -0.437487 -2.18333 -1.27116 0.603359 1.11995 -0.437487 0.170036 1.11995 1.54804 0.170036 0.555793 -0.437487 0.170036 -1.27116 -0.723238 0.170036 0.555793 -0.723238 -0.478493 3.63748 3.99101 2.56067 2.91773 3.99101 4.33777 2.91773 3.25005 2.56067 2.91773 1.54804 1.87697 2.91773 3.25005 1.87697 2.16613 4.33777 4.67985 3.25005 3.58128 4.67985 5.01781 3.58128 3.91702 3.25005 3.58128 2.16613 2.46558 3.58128 3.91702 2.46558 2.78911 1.54804 1.87697 0.555793 0.81224 1.87697 2.16613 0.81224 1.04468 0.555793 0.81224 -0.478493 -0.302431 0.81224 1.04468 -0.302431 -0.119959 2.16613 2.46558 1.04468 1.30709 2.46558 2.78911 1.30709 1.62103 1.04468 1.30709 -0.119959 0.11688 1.30709 1.62103 0.11688 0.430878 -2.74678 -2.18333 -2.46657 -1.94558 -2.18333 -1.27116 -1.94558 -1.39442 -2.46657 -1.94558 -1.8665 -2.06546 -1.94558 -1.39442 -2.06546 -2.26443 -1.27116 -0.723238 -1.39442 -1.63874 -0.723238 -0.478493 -1.63874 -1.57567 -1.39442 -1.63874 -2.26443 -2.7749 -1.63874 -1.57567 -2.7749 -2.70504 -2.26443 -2.7749 -1.13222 -1.2153 -2.7749 -2.70504 -1.2153 -1.28929 -1.13222 -1.2153 6.98186e-11 -3.8107e-10 -1.2153 -1.28929 -3.8107e-10 -3.29648e-10 -0.478493 -0.302431 -1.57567 -1.46312 -0.302431 -0.119959 -1.46312 -1.31405 -1.57567 -1.46312 -2.70504 -2.63784 -1.46312 -1.31405 -2.63784 -2.50662 -0.119959 0.11688 -1.31405 -1.08752 0.11688 0.430878 -1.08752 -0.761178 -1.31405 -1.08752 -2.50662 -2.27835 -1.08752 -0.761178 -2.27835 -1.91032 -2.70504 -2.63784 -1.28929 -1.27063 -2.63784 -2.50662 -1.27063 -1.20259 -1.28929 -1.27063 -3.29648e-10 -4.48478e-10 -1.27063 -1.20259 -4.48478e-10 -4.23586e-10 -2.50662 -2.27835 -1.20259 -1.1738 -2.27835 -1.91032 -1.1738 -1.35645 -1.20259 -1.1738 -4.23586e-10 -4.1486e-10 -1.1738 -1.35645 -4.1486e-10 -2.1994e-10 13.6853 14.1802 12.6389 13.1195 14.1802 14.6144 13.1195 13.4572 12.6389 13.1195 12.0652 12.2529 13.1195 13.4572 12.2529 12.3892 14.6144 15.0193 13.4572 13.7449 15.0193 15.4666 13.7449 14.0505 13.4572 13.7449 12.3892 12.4755 13.7449 14.0505 12.4755 12.5167 12.0652 12.2529 10.8497 11.0519 12.2529 12.3892 11.0519 11.2094 10.8497 11.0519 9.62602 9.85137 11.0519 11.2094 9.85137 10.0382 12.3892 12.4755 11.2094 11.3246 12.4755 12.5167 11.3246 11.4067 11.2094 11.3246 10.0382 10.1948 11.3246 11.4067 10.1948 10.3537 15.4666 15.9452 14.0505 14.474 15.9452 16.4549 14.474 14.9255 14.0505 14.474 12.5167 12.6259 14.474 14.9255 12.6259 13.3962 12.5167 12.6259 11.4067 11.4035 12.6259 13.3962 11.4035 10.7719 11.4067 11.4035 10.3537 10.5828 11.4035 10.7719 10.5828 11.1939 13.3962 13.9402 10.7719 11.9088 13.9402 14.4842 11.9088 13.2035 10.7719 11.9088 11.1939 12.1378 11.9088 13.2035 12.1378 12.7203 9.62602 9.85137 8.41963 8.67472 9.85137 10.0382 8.67472 8.90131 8.41963 8.67472 7.24663 7.53536 8.67472 8.90131 7.53536 7.80967 10.0382 10.1948 8.90131 9.11612 10.1948 10.3537 9.11612 9.36416 8.90131 9.11612 7.80967 8.08459 9.11612 9.36416 8.08459 8.4046 7.24663 7.53536 6.11901 6.4374 7.53536 7.80967 6.4374 6.75091 6.11901 6.4374 5.01781 5.35239 6.4374 6.75091 5.35239 5.68552 7.80967 8.08459 6.75091 7.06807 8.08459 8.4046 7.06807 7.41166 6.75091 7.06807 5.68552 6.0204 7.06807 7.41166 6.0204 6.36053 10.3537 10.5828 9.36416 9.7529 10.5828 11.1939 9.7529 10.3676 9.36416 9.7529 8.4046 8.82264 9.7529 10.3676 8.82264 9.32463 11.1939 12.1378 10.3676 10.9924 12.1378 12.7203 10.9924 11.4872 10.3676 10.9924 9.32463 9.80622 10.9924 11.4872 9.80622 10.2408 8.4046 8.82264 7.41166 7.79655 8.82264 9.32463 7.79655 8.2072 7.41166 7.79655 6.36053 6.70983 7.79655 8.2072 6.70983 7.06308 9.32463 9.80622 8.2072 8.60916 9.80622 10.2408 8.60916 8.99572 8.2072 8.60916 7.06308 7.41531 8.60916 8.99572 7.41531 7.76116 14.4842 15.1637 13.2035 14.0484 15.1637 15.8432 14.0484 14.6781 13.2035 14.0484 12.7203 13.2118 14.0484 14.6781 13.2118 13.6632 15.8432 16.4074 14.6781 15.2201 16.4074 16.9715 15.2201 15.6925 14.6781 15.2201 13.6632 14.0951 15.2201 15.6925 14.0951 14.4948 16.9715 17.4657 15.6925 16.1231 17.4657 17.9599 16.1231 16.5028 15.6925 16.1231 14.4948 14.8503 16.1231 16.5028 14.8503 15.1532 17.9599 18.4611 16.5028 16.86 18.4611 18.9624 16.86 17.2305 16.5028 16.86 15.1532 15.3423 16.86 17.2305 15.3423 15.4471 12.7203 13.2118 11.4872 11.9305 13.2118 13.6632 11.9305 12.3506 11.4872 11.9305 10.2408 10.6471 11.9305 12.3506 10.6471 11.0374 13.6632 14.0951 12.3506 12.7553 14.0951 14.4948 12.7553 13.1361 12.3506 12.7553 11.0374 11.4145 12.7553 13.1361 11.4145 11.773 10.2408 10.6471 8.99572 9.36758 10.6471 11.0374 9.36758 9.72846 8.99572 9.36758 7.76116 8.09963 9.36758 9.72846 8.09963 8.4305 11.0374 11.4145 9.72846 10.0787 11.4145 11.773 10.0787 10.4154 9.72846 10.0787 8.4305 8.75471 10.0787 10.4154 8.75471 9.07174 14.4948 14.8503 13.1361 13.4793 14.8503 15.1532 13.4793 13.7622 13.1361 13.4793 11.773 12.1007 13.4793 13.7622 12.1007 12.375 15.1532 15.3423 13.7622 13.9648 15.3423 15.4471 13.9648 14.1266 13.7622 13.9648 12.375 12.5967 13.9648 14.1266 12.5967 12.8099 11.773 12.1007 10.4154 10.7314 12.1007 12.375 10.7314 11.011 10.4154 10.7314 9.07174 9.38064 10.7314 11.011 9.38064 9.67573 12.375 12.5967 11.011 11.2639 12.5967 12.8099 11.2639 11.5424 11.011 11.2639 9.67573 9.96439 11.2639 11.5424 9.96439 10.2934 5.01781 5.35239 3.91702 4.25723 5.35239 5.68552 4.25723 4.59914 3.91702 4.25723 2.78911 3.13452 4.25723 4.59914 3.13452 3.49288 5.68552 6.0204 4.59914 4.93894 6.0204 6.36053 4.93894 5.27382 4.59914 4.93894 3.49288 3.85036 4.93894 5.27382