# vtk DataFile Version 3.0
#This file was generated by the deal.II library on 2016/3/9 at 8:35:55
ASCII
DATASET UNSTRUCTURED_GRID

POINTS 128 double
0 0 0
0.25 0 0
0 0.25 0
0.25 0.25 0
0.25 0 0
0.5 0 0
0.25 0.25 0
0.5 0.25 0
0 0.25 0
0.25 0.25 0
0 0.5 0
0.25 0.5 0
0.25 0.25 0
0.5 0.25 0
0.25 0.5 0
0.5 0.5 0
0.5 0 0
0.75 0 0
0.5 0.25 0
0.75 0.25 0
0.75 0 0
1 0 0
0.75 0.25 0
1 0.25 0
0.5 0.25 0
0.75 0.25 0
0.5 0.5 0
0.75 0.5 0
0.75 0.25 0
1 0.25 0
0.75 0.5 0
1 0.5 0
1 0 0
1.25 0 0
1 0.25 0
1.25 0.25 0
1.25 0 0
1.5 0 0
1.25 0.25 0
1.5 0.25 0
1 0.25 0
1.25 0.25 0
1 0.5 0
1.25 0.5 0
1.25 0.25 0
1.5 0.25 0
1.25 0.5 0
1.5 0.5 0
1.5 0 0
1.75 0 0
1.5 0.25 0
1.75 0.25 0
1.75 0 0
2 0 0
1.75 0.25 0
2 0.25 0
1.5 0.25 0
1.75 0.25 0
1.5 0.5 0
1.75 0.5 0
1.75 0.25 0
2 0.25 0
1.75 0.5 0
2 0.5 0
0 0.5 0
0.25 0.5 0
0 0.75 0
0.25 0.75 0
0.25 0.5 0
0.5 0.5 0
0.25 0.75 0
0.5 0.75 0
0 0.75 0
0.25 0.75 0
0 1 0
0.25 1 0
0.25 0.75 0
0.5 0.75 0
0.25 1 0
0.5 1 0
0.5 0.5 0
0.75 0.5 0
0.5 0.75 0
0.75 0.75 0
0.75 0.5 0
1 0.5 0
0.75 0.75 0
1 0.75 0
0.5 0.75 0
0.75 0.75 0
0.5 1 0
0.75 1 0
0.75 0.75 0
1 0.75 0
0.75 1 0
1 1 0
1 0.5 0
1.25 0.5 0
1 0.75 0
1.25 0.75 0
1.25 0.5 0
1.5 0.5 0
1.25 0.75 0
1.5 0.75 0
1 0.75 0
1.25 0.75 0
1 1 0
1.25 1 0
1.25 0.75 0
1.5 0.75 0
1.25 1 0
1.5 1 0
1.5 0.5 0
1.75 0.5 0
1.5 0.75 0
1.75 0.75 0
1.75 0.5 0
2 0.5 0
1.75 0.75 0
2 0.75 0
1.5 0.75 0
1.75 0.75 0
1.5 1 0
1.75 1 0
1.75 0.75 0
2 0.75 0
1.75 1 0
2 1 0

CELLS 32 160
4	0	1	3	2
4	4	5	7	6
4	8	9	11	10
4	12	13	15	14
4	16	17	19	18
4	20	21	23	22
4	24	25	27	26
4	28	29	31	30
4	32	33	35	34
4	36	37	39	38
4	40	41	43	42
4	44	45	47	46
4	48	49	51	50
4	52	53	55	54
4	56	57	59	58
4	60	61	63	62
4	64	65	67	66
4	68	69	71	70
4	72	73	75	74
4	76	77	79	78
4	80	81	83	82
4	84	85	87	86
4	88	89	91	90
4	92	93	95	94
4	96	97	99	98
4	100	101	103	102
4	104	105	107	106
4	108	109	111	110
4	112	113	115	114
4	116	117	119	118
4	120	121	123	122
4	124	125	127	126

CELL_TYPES 32
 9 9 9 9 9 9 9 9 9 9 9 9 9 9 9 9 9 9 9 9 9 9 9 9 9 9 9 9 9 9 9 9
POINT_DATA 128
SCALARS x_displacement double 1
LOOKUP_TABLE default
0 11.3447 0 -0.299807 11.3447 19.3321 -0.299807 2.30483 0 -0.299807 0 -1.88162e-12 -0.299807 2.30483 -1.88162e-12 5.54447e-13 19.3321 25.3346 2.30483 4.77308 25.3346 30.9637 4.77308 7.71589 2.30483 4.77308 5.54447e-13 2.06235e-12 4.77308 7.71589 2.06235e-12 4.16378e-12 30.9637 35.6976 7.71589 12.4643 35.6976 40.3195 12.4643 18.9153 7.71589 12.4643 4.16378e-12 2.48564e-12 12.4643 18.9153 2.48564e-12 -8.16956e-13 40.3195 48.2902 18.9153 26.9939 48.2902 55.6807 26.9939 30.1217 18.9153 26.9939 -8.16956e-13 -4.94602e-13 26.9939 30.1217 -4.94602e-13 -2.05029e-12 0 -1.88162e-12 0 0.299807 -1.88162e-12 5.54447e-13 0.299807 -2.30483 0 0.299807 0 -11.3447 0.299807 -2.30483 -11.3447 -19.3321 5.54447e-13 2.06235e-12 -2.30483 -4.77308 2.06235e-12 4.16378e-12 -4.77308 -7.71589 -2.30483 -4.77308 -19.3321 -25.3346 -4.77308 -7.71589 -25.3346 -30.9637 4.16378e-12 2.48564e-12 -7.71589 -12.4643 2.48564e-12 -8.16956e-13 -12.4643 -18.9153 -7.71589 -12.4643 -30.9637 -35.6976 -12.4643 -18.9153 -35.6976 -40.3195 -8.16956e-13 -4.94602e-13 -18.9153 -26.9939 -4.94602e-13 -2.05029e-12 -26.9939 -30.1217 -18.9153 -26.9939 -40.3195 -48.2902 -26.9939 -30.1217 -48.2902 -55.6807 
SCALARS y_displacement double 1
LOOKUP_TABLE default
0 10.203 0 8.17317 10.203 26.5704 8.17317 25.2576 0 8.17317 0 9.58804 8.17317 25.2576 9.58804 25.3823 26.5704 46.8513 25.2576 45.3419 46.8513 70.8577 45.3419 69.3883 25.2576 45.3419 25.3823 44.1943 45.3419 69.3883 44.1943 68.3701 70.8577 97.2391 69.3883 95.9418 97.2391 124.54 95.9418 123.126 69.3883 95.9418 68.3701 95.8271 95.9418 123.126 95.8271 122.756 124.54 156.622 123.126 156.489 156.622 189.781 156.489 191.959 123.126 156.489 122.756 155.346 156.489 191.959 155.346 197.815 0 9.58804 0 8.17317 9.58804 25.3823 8.17317 25.2576 0 8.17317 0 10.203 8.17317 25.2576 10.203 26.5704 25.3823 44.1943 25.2576 45.3419 44.1943 68.3701 45.3419 69.3883 25.2576 45.3419 26.5704 46.8513 45.3419 69.3883 46.8513 70.8577 68.3701 95.8271 69.3883 95.9418 95.8271 122.756 95.9418 123.126 69.3883 95.9418 70.8577 97.2391 95.9418 123.126 97.2391 124.54 122.756 155.346 123.126 156.489 155.346 197.815 156.489 191.959 123.126 156.489 124.54 156.622 156.489 191.959 156.622 189.781 
