# vtk DataFile Version 3.0
#This file was generated by the deal.II library on 2016/3/9 at 8:35:56
ASCII
DATASET UNSTRUCTURED_GRID

POINTS 512 double
0 0 0
0.125 0 0
0 0.125 0
0.125 0.125 0
0.125 0 0
0.25 0 0
0.125 0.125 0
0.25 0.125 0
0 0.125 0
0.125 0.125 0
0 0.25 0
0.125 0.25 0
0.125 0.125 0
0.25 0.125 0
0.125 0.25 0
0.25 0.25 0
0.25 0 0
0.375 0 0
0.25 0.125 0
0.375 0.125 0
0.375 0 0
0.5 0 0
0.375 0.125 0
0.5 0.125 0
0.25 0.125 0
0.375 0.125 0
0.25 0.25 0
0.375 0.25 0
0.375 0.125 0
0.5 0.125 0
0.375 0.25 0
0.5 0.25 0
0 0.25 0
0.125 0.25 0
0 0.375 0
0.125 0.375 0
0.125 0.25 0
0.25 0.25 0
0.125 0.375 0
0.25 0.375 0
0 0.375 0
0.125 0.375 0
0 0.5 0
0.125 0.5 0
0.125 0.375 0
0.25 0.375 0
0.125 0.5 0
0.25 0.5 0
0.25 0.25 0
0.375 0.25 0
0.25 0.375 0
0.375 0.375 0
0.375 0.25 0
0.5 0.25 0
0.375 0.375 0
0.5 0.375 0
0.25 0.375 0
0.375 0.375 0
0.25 0.5 0
0.375 0.5 0
0.375 0.375 0
0.5 0.375 0
0.375 0.5 0
0.5 0.5 0
0.5 0 0
0.625 0 0
0.5 0.125 0
0.625 0.125 0
0.625 0 0
0.75 0 0
0.625 0.125 0
0.75 0.125 0
0.5 0.125 0
0.625 0.125 0
0.5 0.25 0
0.625 0.25 0
0.625 0.125 0
0.75 0.125 0
0.625 0.25 0
0.75 0.25 0
0.75 0 0
0.875 0 0
0.75 0.125 0
0.875 0.125 0
0.875 0 0
1 0 0
0.875 0.125 0
1 0.125 0
0.75 0.125 0
0.875 0.125 0
0.75 0.25 0
0.875 0.25 0
0.875 0.125 0
1 0.125 0
0.875 0.25 0
1 0.25 0
0.5 0.25 0
0.625 0.25 0
0.5 0.375 0
0.625 0.375 0
0.625 0.25 0
0.75 0.25 0
0.625 0.375 0
0.75 0.375 0
0.5 0.375 0
0.625 0.375 0
0.5 0.5 0
0.625 0.5 0
0.625 0.375 0
0.75 0.375 0
0.625 0.5 0
0.75 0.5 0
0.75 0.25 0
0.875 0.25 0
0.75 0.375 0
0.875 0.375 0
0.875 0.25 0
1 0.25 0
0.875 0.375 0
1 0.375 0
0.75 0.375 0
0.875 0.375 0
0.75 0.5 0
0.875 0.5 0
0.875 0.375 0
1 0.375 0
0.875 0.5 0
1 0.5 0
1 0 0
1.125 0 0
1 0.125 0
1.125 0.125 0
1.125 0 0
1.25 0 0
1.125 0.125 0
1.25 0.125 0
1 0.125 0
1.125 0.125 0
1 0.25 0
1.125 0.25 0
1.125 0.125 0
1.25 0.125 0
1.125 0.25 0
1.25 0.25 0
1.25 0 0
1.375 0 0
1.25 0.125 0
1.375 0.125 0
1.375 0 0
1.5 0 0
1.375 0.125 0
1.5 0.125 0
1.25 0.125 0
1.375 0.125 0
1.25 0.25 0
1.375 0.25 0
1.375 0.125 0
1.5 0.125 0
1.375 0.25 0
1.5 0.25 0
1 0.25 0
1.125 0.25 0
1 0.375 0
1.125 0.375 0
1.125 0.25 0
1.25 0.25 0
1.125 0.375 0
1.25 0.375 0
1 0.375 0
1.125 0.375 0
1 0.5 0
1.125 0.5 0
1.125 0.375 0
1.25 0.375 0
1.125 0.5 0
1.25 0.5 0
1.25 0.25 0
1.375 0.25 0
1.25 0.375 0
1.375 0.375 0
1.375 0.25 0
1.5 0.25 0
1.375 0.375 0
1.5 0.375 0
1.25 0.375 0
1.375 0.375 0
1.25 0.5 0
1.375 0.5 0
1.375 0.375 0
1.5 0.375 0
1.375 0.5 0
1.5 0.5 0
1.5 0 0
1.625 0 0
1.5 0.125 0
1.625 0.125 0
1.625 0 0
1.75 0 0
1.625 0.125 0
1.75 0.125 0
1.5 0.125 0
1.625 0.125 0
1.5 0.25 0
1.625 0.25 0
1.625 0.125 0
1.75 0.125 0
1.625 0.25 0
1.75 0.25 0
1.75 0 0
1.875 0 0
1.75 0.125 0
1.875 0.125 0
1.875 0 0
2 0 0
1.875 0.125 0
2 0.125 0
1.75 0.125 0
1.875 0.125 0
1.75 0.25 0
1.875 0.25 0
1.875 0.125 0
2 0.125 0
1.875 0.25 0
2 0.25 0
1.5 0.25 0
1.625 0.25 0
1.5 0.375 0
1.625 0.375 0
1.625 0.25 0
1.75 0.25 0
1.625 0.375 0
1.75 0.375 0
1.5 0.375 0
1.625 0.375 0
1.5 0.5 0
1.625 0.5 0
1.625 0.375 0
1.75 0.375 0
1.625 0.5 0
1.75 0.5 0
1.75 0.25 0
1.875 0.25 0
1.75 0.375 0
1.875 0.375 0
1.875 0.25 0
2 0.25 0
1.875 0.375 0
2 0.375 0
1.75 0.375 0
1.875 0.375 0
1.75 0.5 0
1.875 0.5 0
1.875 0.375 0
2 0.375 0
1.875 0.5 0
2 0.5 0
0 0.5 0
0.125 0.5 0
0 0.625 0
0.125 0.625 0
0.125 0.5 0
0.25 0.5 0
0.125 0.625 0
0.25 0.625 0
0 0.625 0
0.125 0.625 0
0 0.75 0
0.125 0.75 0
0.125 0.625 0
0.25 0.625 0
0.125 0.75 0
0.25 0.75 0
0.25 0.5 0
0.375 0.5 0
0.25 0.625 0
0.375 0.625 0
0.375 0.5 0
0.5 0.5 0
0.375 0.625 0
0.5 0.625 0
0.25 0.625 0
0.375 0.625 0
0.25 0.75 0
0.375 0.75 0
0.375 0.625 0
0.5 0.625 0
0.375 0.75 0
0.5 0.75 0
0 0.75 0
0.125 0.75 0
0 0.875 0
0.125 0.875 0
0.125 0.75 0
0.25 0.75 0
0.125 0.875 0
0.25 0.875 0
0 0.875 0
0.125 0.875 0
0 1 0
0.125 1 0
0.125 0.875 0
0.25 0.875 0
0.125 1 0
0.25 1 0
0.25 0.75 0
0.375 0.75 0
0.25 0.875 0
0.375 0.875 0
0.375 0.75 0
0.5 0.75 0
0.375 0.875 0
0.5 0.875 0
0.25 0.875 0
0.375 0.875 0
0.25 1 0
0.375 1 0
0.375 0.875 0
0.5 0.875 0
0.375 1 0
0.5 1 0
0.5 0.5 0
0.625 0.5 0
0.5 0.625 0
0.625 0.625 0
0.625 0.5 0
0.75 0.5 0
0.625 0.625 0
0.75 0.625 0
0.5 0.625 0
0.625 0.625 0
0.5 0.75 0
0.625 0.75 0
0.625 0.625 0
0.75 0.625 0
0.625 0.75 0
0.75 0.75 0
0.75 0.5 0
0.875 0.5 0
0.75 0.625 0
0.875 0.625 0
0.875 0.5 0
1 0.5 0
0.875 0.625 0
1 0.625 0
0.75 0.625 0
0.875 0.625 0
0.75 0.75 0
0.875 0.75 0
0.875 0.625 0
1 0.625 0
0.875 0.75 0
1 0.75 0
0.5 0.75 0
0.625 0.75 0
0.5 0.875 0
0.625 0.875 0
0.625 0.75 0
0.75 0.75 0
0.625 0.875 0
0.75 0.875 0
0.5 0.875 0
0.625 0.875 0
0.5 1 0
0.625 1 0
0.625 0.875 0
0.75 0.875 0
0.625 1 0
0.75 1 0
0.75 0.75 0
0.875 0.75 0
0.75 0.875 0
0.875 0.875 0
0.875 0.75 0
1 0.75 0
0.875 0.875 0
1 0.875 0
0.75 0.875 0
0.875 0.875 0
0.75 1 0
0.875 1 0
0.875 0.875 0
1 0.875 0
0.875 1 0
1 1 0
1 0.5 0
1.125 0.5 0
1 0.625 0
1.125 0.625 0
1.125 0.5 0
1.25 0.5 0
1.125 0.625 0
1.25 0.625 0
1 0.625 0
1.125 0.625 0
1 0.75 0
1.125 0.75 0
1.125 0.625 0
1.25 0.625 0
1.125 0.75 0
1.25 0.75 0
1.25 0.5 0
1.375 0.5 0
1.25 0.625 0
1.375 0.625 0
1.375 0.5 0
1.5 0.5 0
1.375 0.625 0
1.5 0.625 0
1.25 0.625 0
1.375 0.625 0
1.25 0.75 0
1.375 0.75 0
1.375 0.625 0
1.5 0.625 0
1.375 0.75 0
1.5 0.75 0
1 0.75 0
1.125 0.75 0
1 0.875 0
1.125 0.875 0
1.125 0.75 0
1.25 0.75 0
1.125 0.875 0
1.25 0.875 0
1 0.875 0
1.125 0.875 0
1 1 0
1.125 1 0
1.125 0.875 0
1.25 0.875 0
1.125 1 0
1.25 1 0
1.25 0.75 0
1.375 0.75 0
1.25 0.875 0
1.375 0.875 0
1.375 0.75 0
1.5 0.75 0
1.375 0.875 0
1.5 0.875 0
1.25 0.875 0
1.375 0.875 0
1.25 1 0
1.375 1 0
1.375 0.875 0
1.5 0.875 0
1.375 1 0
1.5 1 0
1.5 0.5 0
1.625 0.5 0
1.5 0.625 0
1.625 0.625 0
1.625 0.5 0
1.75 0.5 0
1.625 0.625 0
1.75 0.625 0
1.5 0.625 0
1.625 0.625 0
1.5 0.75 0
1.625 0.75 0
1.625 0.625 0
1.75 0.625 0
1.625 0.75 0
1.75 0.75 0
1.75 0.5 0
1.875 0.5 0
1.75 0.625 0
1.875 0.625 0
1.875 0.5 0
2 0.5 0
1.875 0.625 0
2 0.625 0
1.75 0.625 0
1.875 0.625 0
1.75 0.75 0
1.875 0.75 0
1.875 0.625 0
2 0.625 0
1.875 0.75 0
2 0.75 0
1.5 0.75 0
1.625 0.75 0
1.5 0.875 0
1.625 0.875 0
1.625 0.75 0
1.75 0.75 0
1.625 0.875 0
1.75 0.875 0
1.5 0.875 0
1.625 0.875 0
1.5 1 0
1.625 1 0
1.625 0.875 0
1.75 0.875 0
1.625 1 0
1.75 1 0
1.75 0.75 0
1.875 0.75 0
1.75 0.875 0
1.875 0.875 0
1.875 0.75 0
2 0.75 0
1.875 0.875 0
2 0.875 0
1.75 0.875 0
1.875 0.875 0
1.75 1 0
1.875 1 0
1.875 0.875 0
2 0.875 0
1.875 1 0
2 1 0

CELLS 128 640
4	0	1	3	2
4	4	5	7	6
4	8	9	11	10
4	12	13	15	14
4	16	17	19	18
4	20	21	23	22
4	24	25	27	26
4	28	29	31	30
4	32	33	35	34
4	36	37	39	38
4	40	41	43	42
4	44	45	47	46
4	48	49	51	50
4	52	53	55	54
4	56	57	59	58
4	60	61	63	62
4	64	65	67	66
4	68	69	71	70
4	72	73	75	74
4	76	77	79	78
4	80	81	83	82
4	84	85	87	86
4	88	89	91	90
4	92	93	95	94
4	96	97	99	98
4	100	101	103	102
4	104	105	107	106
4	108	109	111	110
4	112	113	115	114
4	116	117	119	118
4	120	121	123	122
4	124	125	127	126
4	128	129	131	130
4	132	133	135	134
4	136	137	139	138
4	140	141	143	142
4	144	145	147	146
4	148	149	151	150
4	152	153	155	154
4	156	157	159	158
4	160	161	163	162
4	164	165	167	166
4	168	169	171	170
4	172	173	175	174
4	176	177	179	178
4	180	181	183	182
4	184	185	187	186
4	188	189	191	190
4	192	193	195	194
4	196	197	199	198
4	200	201	203	202
4	204	205	207	206
4	208	209	211	210
4	212	213	215	214
4	216	217	219	218
4	220	221	223	222
4	224	225	227	226
4	228	229	231	230
4	232	233	235	234
4	236	237	239	238
4	240	241	243	242
4	244	245	247	246
4	248	249	251	250
4	252	253	255	254
4	256	257	259	258
4	260	261	263	262
4	264	265	267	266
4	268	269	271	270
4	272	273	275	274
4	276	277	279	278
4	280	281	283	282
4	284	285	287	286
4	288	289	291	290
4	292	293	295	294
4	296	297	299	298
4	300	301	303	302
4	304	305	307	306
4	308	309	311	310
4	312	313	315	314
4	316	317	319	318
4	320	321	323	322
4	324	325	327	326
4	328	329	331	330
4	332	333	335	334
4	336	337	339	338
4	340	341	343	342
4	344	345	347	346
4	348	349	351	350
4	352	353	355	354
4	356	357	359	358
4	360	361	363	362
4	364	365	367	366
4	368	369	371	370
4	372	373	375	374
4	376	377	379	378
4	380	381	383	382
4	384	385	387	386
4	388	389	391	390
4	392	393	395	394
4	396	397	399	398
4	400	401	403	402
4	404	405	407	406
4	408	409	411	410
4	412	413	415	414
4	416	417	419	418
4	420	421	423	422
4	424	425	427	426
4	428	429	431	430
4	432	433	435	434
4	436	437	439	438
4	440	441	443	442
4	444	445	447	446
4	448	449	451	450
4	452	453	455	454
4	456	457	459	458
4	460	461	463	462
4	464	465	467	466
4	468	469	471	470
4	472	473	475	474
4	476	477	479	478
4	480	481	483	482
4	484	485	487	486
4	488	489	491	490
4	492	493	495	494
4	496	497	499	498
4	500	501	503	502
4	504	505	507	506
4	508	509	511	510

CELL_TYPES 128
 9 9 9 9 9 9 9 9 9 9 9 9 9 9 9 9 9 9 9 9 9 9 9 9 9 9 9 9 9 9 9 9 9 9 9 9 9 9 9 9 9 9 9 9 9 9 9 9 9 9 9 9 9 9 9 9 9 9 9 9 9 9 9 9 9 9 9 9 9 9 9 9 9 9 9 9 9 9 9 9 9 9 9 9 9 9 9 9 9 9 9 9 9 9 9 9 9 9 9 9 9 9 9 9 9 9 9 9 9 9 9 9 9 9 9 9 9 9 9 9 9 9 9 9 9 9 9 9
POINT_DATA 512
SCALARS x_displacement double 1
LOOKUP_TABLE default
0 4.17876 0 0.638802 4.17876 7.79506 0.638802 1.99703 0 0.638802 0 -1.90023 0.638802 1.99703 -1.90023 -2.84669 7.79506 10.6557 1.99703 3.69363 10.6557 12.8575 3.69363 5.44201 1.99703 3.69363 -2.84669 -2.08657 3.69363 5.44201 -2.08657 -0.473954 0 -1.90023 0 -4.47702 -1.90023 -2.84669 -4.47702 -7.21475 0 -4.47702 0 6.52326e-12 -4.47702 -7.21475 6.52326e-12 1.35773e-11 -2.84669 -2.08657 -7.21475 -4.68132 -2.08657 -0.473954 -4.68132 -1.21353 -7.21475 -4.68132 1.35773e-11 7.70102e-12 -4.68132 -1.21353 7.70102e-12 1.03184e-11 12.8575 15.0414 5.44201 7.24178 15.0414 17.8087 7.24178 9.36781 5.44201 7.24178 -0.473954 1.09223 7.24178 9.36781 1.09223 2.48778 17.8087 20.6835 9.36781 11.5076 20.6835 23.0468 11.5076 13.3434 9.36781 11.5076 2.48778 3.64737 11.5076 13.3434 3.64737 4.89392 -0.473954 1.09223 -1.21353 0.303653 1.09223 2.48778 0.303653 1.03089 -1.21353 0.303653 1.03184e-11 9.59786e-12 0.303653 1.03089 9.59786e-12 9.31697e-12 2.48778 3.64737 1.03089 1.06951 3.64737 4.89392 1.06951 -0.0765444 1.03089 1.06951 9.31697e-12 1.0498e-11 1.06951 -0.0765444 1.0498e-11 1.08607e-11 23.0468 24.9761 13.3434 15.2595 24.9761 26.8171 15.2595 17.6757 13.3434 15.2595 4.89392 6.94107 15.2595 17.6757 6.94107 9.68195 26.8171 28.7685 17.6757 20.2174 28.7685 30.9269 20.2174 22.7276 17.6757 20.2174 9.68195 12.3724 20.2174 22.7276 12.3724 15.0341 4.89392 6.94107 -0.0765444 -0.977583 6.94107 9.68195 -0.977583 2.05431 -0.0765444 -0.977583 1.08607e-11 1.33666e-11 -0.977583 2.05431 1.33666e-11 8.60166e-12 9.68195 12.3724 2.05431 4.72948 12.3724 15.0341 4.72948 7.23757 2.05431 4.72948 8.60166e-12 1.01015e-11 4.72948 7.23757 1.01015e-11 8.96095e-12 30.9269 33.6776 22.7276 25.7008 33.6776 37.3293 25.7008 30.0536 22.7276 25.7008 15.0341 18.2814 25.7008 30.0536 18.2814 22.7401 37.3293 37.7614 30.0536 37.4744 37.7614 46.6866 37.4744 41.8987 30.0536 37.4744 22.7401 27.4124 37.4744 41.8987 27.4124 29.5908 15.0341 18.2814 7.23757 9.89228 18.2814 22.7401 9.89228 12.4954 7.23757 9.89228 8.96095e-12 8.95309e-12 9.89228 12.4954 8.95309e-12 9.35578e-12 22.7401 27.4124 12.4954 14.7927 27.4124 29.5908 14.7927 15.5333 12.4954 14.7927 9.35578e-12 1.03135e-11 14.7927 15.5333 1.03135e-11 1.01689e-11 0 6.52326e-12 0 4.47702 6.52326e-12 1.35773e-11 4.47702 7.21475 0 4.47702 0 1.90023 4.47702 7.21475 1.90023 2.84669 1.35773e-11 7.70102e-12 7.21475 4.68132 7.70102e-12 1.03184e-11 4.68132 1.21353 7.21475 4.68132 2.84669 2.08657 4.68132 1.21353 2.08657 0.473954 0 1.90023 0 -0.638802 1.90023 2.84669 -0.638802 -1.99703 0 -0.638802 0 -4.17876 -0.638802 -1.99703 -4.17876 -7.79506 2.84669 2.08657 -1.99703 -3.69363 2.08657 0.473954 -3.69363 -5.44201 -1.99703 -3.69363 -7.79506 -10.6557 -3.69363 -5.44201 -10.6557 -12.8575 1.03184e-11 9.59786e-12 1.21353 -0.303653 9.59786e-12 9.31697e-12 -0.303653 -1.03089 1.21353 -0.303653 0.473954 -1.09223 -0.303653 -1.03089 -1.09223 -2.48778 9.31697e-12 1.0498e-11 -1.03089 -1.06951 1.0498e-11 1.08607e-11 -1.06951 0.0765444 -1.03089 -1.06951 -2.48778 -3.64737 -1.06951 0.0765444 -3.64737 -4.89392 0.473954 -1.09223 -5.44201 -7.24178 -1.09223 -2.48778 -7.24178 -9.36781 -5.44201 -7.24178 -12.8575 -15.0414 -7.24178 -9.36781 -15.0414 -17.8087 -2.48778 -3.64737 -9.36781 -11.5076 -3.64737 -4.89392 -11.5076 -13.3434 -9.36781 -11.5076 -17.8087 -20.6835 -11.5076 -13.3434 -20.6835 -23.0468 1.08607e-11 1.33666e-11 0.0765444 0.977583 1.33666e-11 8.60166e-12 0.977583 -2.05431 0.0765444 0.977583 -4.89392 -6.94107 0.977583 -2.05431 -6.94107 -9.68195 8.60166e-12 1.01015e-11 -2.05431 -4.72948 1.01015e-11 8.96095e-12 -4.72948 -7.23757 -2.05431 -4.72948 -9.68195 -12.3724 -4.72948 -7.23757 -12.3724 -15.0341 -4.89392 -6.94107 -13.3434 -15.2595 -6.94107 -9.68195 -15.2595 -17.6757 -13.3434 -15.2595 -23.0468 -24.9761 -15.2595 -17.6757 -24.9761 -26.8171 -9.68195 -12.3724 -17.6757 -20.2174 -12.3724 -15.0341 -20.2174 -22.7276 -17.6757 -20.2174 -26.8171 -28.7685 -20.2174 -22.7276 -28.7685 -30.9269 8.96095e-12 8.95309e-12 -7.23757 -9.89228 8.95309e-12 9.35578e-12 -9.89228 -12.4954 -7.23757 -9.89228 -15.0341 -18.2814 -9.89228 -12.4954 -18.2814 -22.7401 9.35578e-12 1.03135e-11 -12.4954 -14.7927 1.03135e-11 1.01689e-11 -14.7927 -15.5333 -12.4954 -14.7927 -22.7401 -27.4124 -14.7927 -15.5333 -27.4124 -29.5908 -15.0341 -18.2814 -22.7276 -25.7008 -18.2814 -22.7401 -25.7008 -30.0536 -22.7276 -25.7008 -30.9269 -33.6776 -25.7008 -30.0536 -33.6776 -37.3293 -22.7401 -27.4124 -30.0536 -37.4744 -27.4124 -29.5908 -37.4744 -41.8987 -30.0536 -37.4744 -37.3293 -37.7614 -37.4744 -41.8987 -37.7614 -46.6866 
SCALARS y_displacement double 1
LOOKUP_TABLE default
0 3.25197 0 2.34464 3.25197 8.83592 2.34464 8.11874 0 2.34464 0 2.46324 2.34464 8.11874 2.46324 7.86364 8.83592 16.112 8.11874 15.5453 16.112 23.8327 15.5453 23.3642 8.11874 15.5453 7.86364 15.4793 15.5453 23.3642 15.4793 23.5691 0 2.46324 0 3.34439 2.46324 7.86364 3.34439 7.90216 0 3.34439 0 4.7506 3.34439 7.90216 4.7506 7.81903 7.86364 15.4793 7.90216 16.6459 15.4793 23.5691 16.6459 25.8711 7.90216 16.6459 7.81903 22.2166 16.6459 25.8711 22.2166 27.3865 23.8327 31.6017 23.3642 30.977 31.6017 39.7089 30.977 38.8496 23.3642 30.977 23.5691 30.8576 30.977 38.8496 30.8576 37.8559 39.7089 48.7136 38.8496 47.8804 48.7136 58.8062 47.8804 58.1371 38.8496 47.8804 37.8559 46.4894 47.8804 58.1371 46.4894 57.0964 23.5691 30.8576 25.8711 31.6996 30.8576 37.8559 31.6996 36.9015 25.8711 31.6996 27.3865 31.9752 31.6996 36.9015 31.9752 36.7085 37.8559 46.4894 36.9015 43.4087 46.4894 57.0964 43.4087 53.9767 36.9015 43.4087 36.7085 42.5123 43.4087 53.9767 42.5123 50.193 58.8062 69.7222 58.1371 69.1963 69.7222 81.0487 69.1963 80.6647 58.1371 69.1963 57.0964 68.6204 69.1963 80.6647 68.6204 80.3815 81.0487 92.1879 80.6647 91.8024 92.1879 103.06 91.8024 102.641 80.6647 91.8024 80.3815 91.4419 91.8024 102.641 91.4419 102.224 57.0964 68.6204 53.9767 68.0514 68.6204 80.3815 68.0514 80.2432 53.9767 68.0514 50.193 65.5164 68.0514 80.2432 65.5164 81.3568 80.3815 91.4419 80.2432 91.1438 91.4419 102.224 91.1438 101.772 80.2432 91.1438 81.3568 91.3395 91.1438 101.772 91.3395 101.663 103.06 114.528 102.641 114.144 114.528 127.919 114.144 127.612 102.641 114.144 102.224 113.781 114.144 127.612 113.781 127.48 127.919 142.047 127.612 144.211 142.047 157.47 144.211 159.426 127.612 144.211 127.48 143.914 144.211 159.426 143.914 160.106 102.224 113.781 101.772 113.401 113.781 127.48 113.401 127.178 101.772 113.401 101.663 113.274 113.401 127.178 113.274 127.107 127.48 143.914 127.178 143.825 143.914 160.106 143.825 161.109 127.178 143.825 127.107 143.391 143.825 161.109 143.391 163.51 0 4.7506 0 3.34439 4.7506 7.81903 3.34439 7.90216 0 3.34439 0 2.46324 3.34439 7.90216 2.46324 7.86364 7.81903 22.2166 7.90216 16.6459 22.2166 27.3865 16.6459 25.8711 7.90216 16.6459 7.86364 15.4793 16.6459 25.8711 15.4793 23.5691 0 2.46324 0 2.34464 2.46324 7.86364 2.34464 8.11874 0 2.34464 0 3.25197 2.34464 8.11874 3.25197 8.83592 7.86364 15.4793 8.11874 15.5453 15.4793 23.5691 15.5453 23.3642 8.11874 15.5453 8.83592 16.112 15.5453 23.3642 16.112 23.8327 27.3865 31.9752 25.8711 31.6996 31.9752 36.7085 31.6996 36.9015 25.8711 31.6996 23.5691 30.8576 31.6996 36.9015 30.8576 37.8559 36.7085 42.5123 36.9015 43.4087 42.5123 50.193 43.4087 53.9767 36.9015 43.4087 37.8559 46.4894 43.4087 53.9767 46.4894 57.0964 23.5691 30.8576 23.3642 30.977 30.8576 37.8559 30.977 38.8496 23.3642 30.977 23.8327 31.6017 30.977 38.8496 31.6017 39.7089 37.8559 46.4894 38.8496 47.8804 46.4894 57.0964 47.8804 58.1371 38.8496 47.8804 39.7089 48.7136 47.8804 58.1371 48.7136 58.8062 50.193 65.5164 53.9767 68.0514 65.5164 81.3568 68.0514 80.2432 53.9767 68.0514 57.0964 68.6204 68.0514 80.2432 68.6204 80.3815 81.3568 91.3395 80.2432 91.1438 91.3395 101.663 91.1438 101.772 80.2432 91.1438 80.3815 91.4419 91.1438 101.772 91.4419 102.224 57.0964 68.6204 58.1371 69.1963 68.6204 80.3815 69.1963 80.6647 58.1371 69.1963 58.8062 69.7222 69.1963 80.6647 69.7222 81.0487 80.3815 91.4419 80.6647 91.8024 91.4419 102.224 91.8024 102.641 80.6647 91.8024 81.0487 92.1879 91.8024 102.641 92.1879 103.06 101.663 113.274 101.772 113.401 113.274 127.107 113.401 127.178 101.772 113.401 102.224 113.781 113.401 127.178 113.781 127.48 127.107 143.391 127.178 143.825 143.391 163.51 143.825 161.109 127.178 143.825 127.48 143.914 143.825 161.109 143.914 160.106 102.224 113.781 102.641 114.144 113.781 127.48 114.144 127.612 102.641 114.144 103.06 114.528 114.144 127.612 114.528 127.919 127.48 143.914 127.612 144.211 143.914 160.106 144.211 159.426 127.612 144.211 127.919 142.047 144.211 159.426 142.047 157.47 
