# vtk DataFile Version 3.0
#This file was generated by the deal.II library on 2016/3/9 at 8:35:04
ASCII
DATASET UNSTRUCTURED_GRID

POINTS 6608 double
0.125 0.375 0
0.25 0.375 0
0.125 0.5 0
0.25 0.5 0
1.75 0 0
1.875 0 0
1.75 0.125 0
1.875 0.125 0
1.875 0 0
2 0 0
1.875 0.125 0
2 0.125 0
0.125 0.5 0
0.25 0.5 0
0.125 0.625 0
0.25 0.625 0
1.75 0.875 0
1.875 0.875 0
1.75 1 0
1.875 1 0
1.875 0.875 0
2 0.875 0
1.875 1 0
2 1 0
0.125 0 0
0.1875 0 0
0.125 0.0625 0
0.1875 0.0625 0
0.1875 0 0
0.25 0 0
0.1875 0.0625 0
0.25 0.0625 0
0.25 0 0
0.3125 0 0
0.25 0.0625 0
0.3125 0.0625 0
0.3125 0 0
0.375 0 0
0.3125 0.0625 0
0.375 0.0625 0
0.375 0 0
0.4375 0 0
0.375 0.0625 0
0.4375 0.0625 0
0.4375 0.0625 0
0.5 0.0625 0
0.4375 0.125 0
0.5 0.125 0
0.125 0.3125 0
0.1875 0.3125 0
0.125 0.375 0
0.1875 0.375 0
0.1875 0.3125 0
0.25 0.3125 0
0.1875 0.375 0
0.25 0.375 0
0.25 0.3125 0
0.3125 0.3125 0
0.25 0.375 0
0.3125 0.375 0
0.625 0.4375 0
0.6875 0.4375 0
0.625 0.5 0
0.6875 0.5 0
0.6875 0.4375 0
0.75 0.4375 0
0.6875 0.5 0
0.75 0.5 0
0.75 0.4375 0
0.8125 0.4375 0
0.75 0.5 0
0.8125 0.5 0
1.1875 0 0
1.25 0 0
1.1875 0.0625 0
1.25 0.0625 0
1.25 0 0
1.3125 0 0
1.25 0.0625 0
1.3125 0.0625 0
1.3125 0 0
1.375 0 0
1.3125 0.0625 0
1.375 0.0625 0
1.375 0 0
1.4375 0 0
1.375 0.0625 0
1.4375 0.0625 0
1.4375 0 0
1.5 0 0
1.4375 0.0625 0
1.5 0.0625 0
1.3125 0.3125 0
1.375 0.3125 0
1.3125 0.375 0
1.375 0.375 0
1.5 0 0
1.5625 0 0
1.5 0.0625 0
1.5625 0.0625 0
1.5625 0 0
1.625 0 0
1.5625 0.0625 0
1.625 0.0625 0
1.5625 0.0625 0
1.625 0.0625 0
1.5625 0.125 0
1.625 0.125 0
1.75 0.125 0
1.8125 0.125 0
1.75 0.1875 0
1.8125 0.1875 0
1.8125 0.125 0
1.875 0.125 0
1.8125 0.1875 0
1.875 0.1875 0
0.125 0.625 0
0.1875 0.625 0
0.125 0.6875 0
0.1875 0.6875 0
0.1875 0.625 0
0.25 0.625 0
0.1875 0.6875 0
0.25 0.6875 0
0.25 0.625 0
0.3125 0.625 0
0.25 0.6875 0
0.3125 0.6875 0
0.125 0.9375 0
0.1875 0.9375 0
0.125 1 0
0.1875 1 0
0.1875 0.9375 0
0.25 0.9375 0
0.1875 1 0
0.25 1 0
0.25 0.9375 0
0.3125 0.9375 0
0.25 1 0
0.3125 1 0
0.3125 0.9375 0
0.375 0.9375 0
0.3125 1 0
0.375 1 0
0.4375 0.875 0
0.5 0.875 0
0.4375 0.9375 0
0.5 0.9375 0
0.375 0.9375 0
0.4375 0.9375 0
0.375 1 0
0.4375 1 0
0.625 0.5 0
0.6875 0.5 0
0.625 0.5625 0
0.6875 0.5625 0
0.6875 0.5 0
0.75 0.5 0
0.6875 0.5625 0
0.75 0.5625 0
0.75 0.5 0
0.8125 0.5 0
0.75 0.5625 0
0.8125 0.5625 0
1.3125 0.625 0
1.375 0.625 0
1.3125 0.6875 0
1.375 0.6875 0
1.1875 0.9375 0
1.25 0.9375 0
1.1875 1 0
1.25 1 0
1.25 0.9375 0
1.3125 0.9375 0
1.25 1 0
1.3125 1 0
1.3125 0.9375 0
1.375 0.9375 0
1.3125 1 0
1.375 1 0
1.375 0.9375 0
1.4375 0.9375 0
1.375 1 0
1.4375 1 0
1.4375 0.9375 0
1.5 0.9375 0
1.4375 1 0
1.5 1 0
1.5625 0.875 0
1.625 0.875 0
1.5625 0.9375 0
1.625 0.9375 0
1.5 0.9375 0
1.5625 0.9375 0
1.5 1 0
1.5625 1 0
1.5625 0.9375 0
1.625 0.9375 0
1.5625 1 0
1.625 1 0
1.75 0.8125 0
1.8125 0.8125 0
1.75 0.875 0
1.8125 0.875 0
1.8125 0.8125 0
1.875 0.8125 0
1.8125 0.875 0
1.875 0.875 0
0 0 0
0.0625 0 0
0 0.0625 0
0.0625 0.0625 0
0.0625 0 0
0.125 0 0
0.0625 0.0625 0
0.125 0.0625 0
0 0.0625 0
0.0625 0.0625 0
0 0.125 0
0.0625 0.125 0
0.0625 0.0625 0
0.125 0.0625 0
0.0625 0.125 0
0.125 0.125 0
0 0.375 0
0.0625 0.375 0
0 0.4375 0
0.0625 0.4375 0
0.0625 0.375 0
0.125 0.375 0
0.0625 0.4375 0
0.125 0.4375 0
0 0.4375 0
0.0625 0.4375 0
0 0.5 0
0.0625 0.5 0
0.0625 0.4375 0
0.125 0.4375 0
0.0625 0.5 0
0.125 0.5 0
0.25 0.375 0
0.3125 0.375 0
0.25 0.4375 0
0.3125 0.4375 0
0.3125 0.375 0
0.375 0.375 0
0.3125 0.4375 0
0.375 0.4375 0
0.25 0.4375 0
0.3125 0.4375 0
0.25 0.5 0
0.3125 0.5 0
0.3125 0.4375 0
0.375 0.4375 0
0.3125 0.5 0
0.375 0.5 0
0.375 0.375 0
0.4375 0.375 0
0.375 0.4375 0
0.4375 0.4375 0
0.4375 0.375 0
0.5 0.375 0
0.4375 0.4375 0
0.5 0.4375 0
0.375 0.4375 0
0.4375 0.4375 0
0.375 0.5 0
0.4375 0.5 0
0.4375 0.4375 0
0.5 0.4375 0
0.4375 0.5 0
0.5 0.5 0
0.5 0.375 0
0.5625 0.375 0
0.5 0.4375 0
0.5625 0.4375 0
0.5625 0.375 0
0.625 0.375 0
0.5625 0.4375 0
0.625 0.4375 0
0.5 0.4375 0
0.5625 0.4375 0
0.5 0.5 0
0.5625 0.5 0
0.5625 0.4375 0
0.625 0.4375 0
0.5625 0.5 0
0.625 0.5 0
1.625 0 0
1.6875 0 0
1.625 0.0625 0
1.6875 0.0625 0
1.6875 0 0
1.75 0 0
1.6875 0.0625 0
1.75 0.0625 0
1.625 0.0625 0
1.6875 0.0625 0
1.625 0.125 0
1.6875 0.125 0
1.6875 0.0625 0
1.75 0.0625 0
1.6875 0.125 0
1.75 0.125 0
1.875 0.125 0
1.9375 0.125 0
1.875 0.1875 0
1.9375 0.1875 0
1.9375 0.125 0
2 0.125 0
1.9375 0.1875 0
2 0.1875 0
1.875 0.1875 0
1.9375 0.1875 0
1.875 0.25 0
1.9375 0.25 0
1.9375 0.1875 0
2 0.1875 0
1.9375 0.25 0
2 0.25 0
0 0.5 0
0.0625 0.5 0
0 0.5625 0
0.0625 0.5625 0
0.0625 0.5 0
0.125 0.5 0
0.0625 0.5625 0
0.125 0.5625 0
0 0.5625 0
0.0625 0.5625 0
0 0.625 0
0.0625 0.625 0
0.0625 0.5625 0
0.125 0.5625 0
0.0625 0.625 0
0.125 0.625 0
0.25 0.5 0
0.3125 0.5 0
0.25 0.5625 0
0.3125 0.5625 0
0.3125 0.5 0
0.375 0.5 0
0.3125 0.5625 0
0.375 0.5625 0
0.25 0.5625 0
0.3125 0.5625 0
0.25 0.625 0
0.3125 0.625 0
0.3125 0.5625 0
0.375 0.5625 0
0.3125 0.625 0
0.375 0.625 0
0.375 0.5 0
0.4375 0.5 0
0.375 0.5625 0
0.4375 0.5625 0
0.4375 0.5 0
0.5 0.5 0
0.4375 0.5625 0
0.5 0.5625 0
0.375 0.5625 0
0.4375 0.5625 0
0.375 0.625 0
0.4375 0.625 0
0.4375 0.5625 0
0.5 0.5625 0
0.4375 0.625 0
0.5 0.625 0
0 0.875 0
0.0625 0.875 0
0 0.9375 0
0.0625 0.9375 0
0.0625 0.875 0
0.125 0.875 0
0.0625 0.9375 0
0.125 0.9375 0
0 0.9375 0
0.0625 0.9375 0
0 1 0
0.0625 1 0
0.0625 0.9375 0
0.125 0.9375 0
0.0625 1 0
0.125 1 0
0.5 0.5 0
0.5625 0.5 0
0.5 0.5625 0
0.5625 0.5625 0
0.5625 0.5 0
0.625 0.5 0
0.5625 0.5625 0
0.625 0.5625 0
0.5 0.5625 0
0.5625 0.5625 0
0.5 0.625 0
0.5625 0.625 0
0.5625 0.5625 0
0.625 0.5625 0
0.5625 0.625 0
0.625 0.625 0
1.625 0.875 0
1.6875 0.875 0
1.625 0.9375 0
1.6875 0.9375 0
1.6875 0.875 0
1.75 0.875 0
1.6875 0.9375 0
1.75 0.9375 0
1.625 0.9375 0
1.6875 0.9375 0
1.625 1 0
1.6875 1 0
1.6875 0.9375 0
1.75 0.9375 0
1.6875 1 0
1.75 1 0
1.875 0.75 0
1.9375 0.75 0
1.875 0.8125 0
1.9375 0.8125 0
1.9375 0.75 0
2 0.75 0
1.9375 0.8125 0
2 0.8125 0
1.875 0.8125 0
1.9375 0.8125 0
1.875 0.875 0
1.9375 0.875 0
1.9375 0.8125 0
2 0.8125 0
1.9375 0.875 0
2 0.875 0
0.125 0.0625 0
0.15625 0.0625 0
0.125 0.09375 0
0.15625 0.09375 0
0.15625 0.0625 0
0.1875 0.0625 0
0.15625 0.09375 0
0.1875 0.09375 0
0.125 0.09375 0
0.15625 0.09375 0
0.125 0.125 0
0.15625 0.125 0
0.15625 0.09375 0
0.1875 0.09375 0
0.15625 0.125 0
0.1875 0.125 0
0.1875 0.0625 0
0.21875 0.0625 0
0.1875 0.09375 0
0.21875 0.09375 0
0.21875 0.0625 0
0.25 0.0625 0
0.21875 0.09375 0
0.25 0.09375 0
0.1875 0.09375 0
0.21875 0.09375 0
0.1875 0.125 0
0.21875 0.125 0
0.21875 0.09375 0
0.25 0.09375 0
0.21875 0.125 0
0.25 0.125 0
0 0.125 0
0.03125 0.125 0
0 0.15625 0
0.03125 0.15625 0
0.03125 0.125 0
0.0625 0.125 0
0.03125 0.15625 0
0.0625 0.15625 0
0 0.15625 0
0.03125 0.15625 0
0 0.1875 0
0.03125 0.1875 0
0.03125 0.15625 0
0.0625 0.15625 0
0.03125 0.1875 0
0.0625 0.1875 0
0.0625 0.125 0
0.09375 0.125 0
0.0625 0.15625 0
0.09375 0.15625 0
0.09375 0.125 0
0.125 0.125 0
0.09375 0.15625 0
0.125 0.15625 0
0.0625 0.15625 0
0.09375 0.15625 0
0.0625 0.1875 0
0.09375 0.1875 0
0.09375 0.15625 0
0.125 0.15625 0
0.09375 0.1875 0
0.125 0.1875 0
0 0.1875 0
0.03125 0.1875 0
0 0.21875 0
0.03125 0.21875 0
0.03125 0.1875 0
0.0625 0.1875 0
0.03125 0.21875 0
0.0625 0.21875 0
0 0.21875 0
0.03125 0.21875 0
0 0.25 0
0.03125 0.25 0
0.03125 0.21875 0
0.0625 0.21875 0
0.03125 0.25 0
0.0625 0.25 0
0.0625 0.1875 0
0.09375 0.1875 0
0.0625 0.21875 0
0.09375 0.21875 0
0.09375 0.1875 0
0.125 0.1875 0
0.09375 0.21875 0
0.125 0.21875 0
0.0625 0.21875 0
0.09375 0.21875 0
0.0625 0.25 0
0.09375 0.25 0
0.09375 0.21875 0
0.125 0.21875 0
0.09375 0.25 0
0.125 0.25 0
0.125 0.125 0
0.15625 0.125 0
0.125 0.15625 0
0.15625 0.15625 0
0.15625 0.125 0
0.1875 0.125 0
0.15625 0.15625 0
0.1875 0.15625 0
0.125 0.15625 0
0.15625 0.15625 0
0.125 0.1875 0
0.15625 0.1875 0
0.15625 0.15625 0
0.1875 0.15625 0
0.15625 0.1875 0
0.1875 0.1875 0
0.1875 0.125 0
0.21875 0.125 0
0.1875 0.15625 0
0.21875 0.15625 0
0.21875 0.125 0
0.25 0.125 0
0.21875 0.15625 0
0.25 0.15625 0
0.1875 0.15625 0
0.21875 0.15625 0
0.1875 0.1875 0
0.21875 0.1875 0
0.21875 0.15625 0
0.25 0.15625 0
0.21875 0.1875 0
0.25 0.1875 0
0.125 0.1875 0
0.15625 0.1875 0
0.125 0.21875 0
0.15625 0.21875 0
0.15625 0.1875 0
0.1875 0.1875 0
0.15625 0.21875 0
0.1875 0.21875 0
0.125 0.21875 0
0.15625 0.21875 0
0.125 0.25 0
0.15625 0.25 0
0.15625 0.21875 0
0.1875 0.21875 0
0.15625 0.25 0
0.1875 0.25 0
0.1875 0.1875 0
0.21875 0.1875 0
0.1875 0.21875 0
0.21875 0.21875 0
0.21875 0.1875 0
0.25 0.1875 0
0.21875 0.21875 0
0.25 0.21875 0
0.1875 0.21875 0
0.21875 0.21875 0
0.1875 0.25 0
0.21875 0.25 0
0.21875 0.21875 0
0.25 0.21875 0
0.21875 0.25 0
0.25 0.25 0
0.25 0.0625 0
0.28125 0.0625 0
0.25 0.09375 0
0.28125 0.09375 0
0.28125 0.0625 0
0.3125 0.0625 0
0.28125 0.09375 0
0.3125 0.09375 0
0.25 0.09375 0
0.28125 0.09375 0
0.25 0.125 0
0.28125 0.125 0
0.28125 0.09375 0
0.3125 0.09375 0
0.28125 0.125 0
0.3125 0.125 0
0.3125 0.0625 0
0.34375 0.0625 0
0.3125 0.09375 0
0.34375 0.09375 0
0.34375 0.0625 0
0.375 0.0625 0
0.34375 0.09375 0
0.375 0.09375 0
0.3125 0.09375 0
0.34375 0.09375 0
0.3125 0.125 0
0.34375 0.125 0
0.34375 0.09375 0
0.375 0.09375 0
0.34375 0.125 0
0.375 0.125 0
0.4375 0 0
0.46875 0 0
0.4375 0.03125 0
0.46875 0.03125 0
0.46875 0 0
0.5 0 0
0.46875 0.03125 0
0.5 0.03125 0
0.4375 0.03125 0
0.46875 0.03125 0
0.4375 0.0625 0
0.46875 0.0625 0
0.46875 0.03125 0
0.5 0.03125 0
0.46875 0.0625 0
0.5 0.0625 0
0.375 0.0625 0
0.40625 0.0625 0
0.375 0.09375 0
0.40625 0.09375 0
0.40625 0.0625 0
0.4375 0.0625 0
0.40625 0.09375 0
0.4375 0.09375 0
0.375 0.09375 0
0.40625 0.09375 0
0.375 0.125 0
0.40625 0.125 0
0.40625 0.09375 0
0.4375 0.09375 0
0.40625 0.125 0
0.4375 0.125 0
0.25 0.125 0
0.28125 0.125 0
0.25 0.15625 0
0.28125 0.15625 0
0.28125 0.125 0
0.3125 0.125 0
0.28125 0.15625 0
0.3125 0.15625 0
0.25 0.15625 0
0.28125 0.15625 0
0.25 0.1875 0
0.28125 0.1875 0
0.28125 0.15625 0
0.3125 0.15625 0
0.28125 0.1875 0
0.3125 0.1875 0
0.3125 0.125 0
0.34375 0.125 0
0.3125 0.15625 0
0.34375 0.15625 0
0.34375 0.125 0
0.375 0.125 0
0.34375 0.15625 0
0.375 0.15625 0
[...]
POINT_DATA 6608
SCALARS x_displacement double 1
LOOKUP_TABLE default
-1.1111 -2.51917 -1.61837e-11 6.38948e-12 26.5924 26.7604 19.6414 20.2073 26.7604 26.7121 20.2073 20.769 -1.61837e-11 6.38948e-12 1.1111 2.51917 -19.6414 -20.2073 -26.5924 -26.7604 -20.2073 -20.769 -26.7604 -26.7121 4.02372 5.52769 2.13767 3.15096 5.52769 6.68365 3.15096 4.02824 6.68365 7.533 4.02824 4.79132 7.533 8.15977 4.79132 5.45491 8.15977 8.6227 5.45491 6.02007 6.02007 6.55618 3.63558 4.28301 -1.51423 -2.14106 -1.1111 -1.81514 -2.14106 -2.81607 -1.81514 -2.51917 -2.81607 -2.68505 -2.51917 -3.48665 -5.02636 -2.09895 -3.88012e-10 -2.89132e-10 -2.09895 -0.855926 -2.89132e-10 -4.10874e-10 -0.855926 -0.749918 -4.10874e-10 1.72118e-10 16.5098 17.6685 13.6167 14.7767 17.6685 18.785 14.7767 16.1395 18.785 20.0217 16.1395 17.3564 20.0217 21.3154 17.3564 18.3942 21.3154 22.6072 18.3942 19.3736 6.08633 6.6381 3.63357 3.99797 22.6072 23.8556 19.3736 20.3621 23.8556 25.0499 20.3621 21.2 20.3621 21.2 16.8484 17.3107 19.6414 19.9243 16.1632 17.1942 19.9243 20.2073 17.1942 19.0105 1.1111 1.81514 1.51423 2.14106 1.81514 2.51917 2.14106 2.81607 2.51917 3.48665 2.81607 2.68505 -2.13767 -3.15096 -4.02372 -5.52769 -3.15096 -4.02824 -5.52769 -6.68365 -4.02824 -4.79132 -6.68365 -7.533 -4.79132 -5.45491 -7.533 -8.15977 -3.63558 -4.28301 -6.02007 -6.55618 -5.45491 -6.02007 -8.15977 -8.6227 -3.88012e-10 -2.89132e-10 5.02636 2.09895 -2.89132e-10 -4.10874e-10 2.09895 0.855926 -4.10874e-10 1.72118e-10 0.855926 0.749918 -3.63357 -3.99797 -6.08633 -6.6381 -13.6167 -14.7767 -16.5098 -17.6685 -14.7767 -16.1395 -17.6685 -18.785 -16.1395 -17.3564 -18.785 -20.0217 -17.3564 -18.3942 -20.0217 -21.3154 -18.3942 -19.3736 -21.3154 -22.6072 -16.8484 -17.3107 -20.3621 -21.2 -19.3736 -20.3621 -22.6072 -23.8556 -20.3621 -21.2 -23.8556 -25.0499 -16.1632 -17.1942 -19.6414 -19.9243 -17.1942 -19.0105 -19.9243 -20.2073 0 2.19202 0 1.01587 2.19202 4.02372 1.01587 2.13767 0 1.01587 0 0.20789 1.01587 2.13767 0.20789 0.530061 0 -0.398476 0 -0.21711 -0.398476 -1.1111 -0.21711 -0.55555 0 -0.21711 0 2.15742e-11 -0.21711 -0.55555 2.15742e-11 -1.61837e-11 -2.51917 -3.48665 -1.25959 -1.35264 -3.48665 -2.82122 -1.35264 -1.65258 -1.25959 -1.35264 6.38948e-12 2.35026e-11 -1.35264 -1.65258 2.35026e-11 1.28163e-11 -2.82122 -2.80404 -1.65258 -2.03142 -2.80404 -3.22 -2.03142 -3.112 -1.65258 -2.03142 1.28163e-11 9.82208e-12 -2.03142 -3.112 9.82208e-12 -8.94498e-11 -3.22 -2.80102 -3.112 -5.11798 -2.80102 -2.83678 -5.11798 -5.02636 -3.112 -5.11798 -8.94498e-11 -2.31559e-10 -5.11798 -5.02636 -2.31559e-10 -3.88012e-10 25.0499 25.9694 21.2 22.1809 25.9694 26.5924 22.1809 23.1169 21.2 22.1809 17.3107 18.5417 22.1809 23.1169 18.5417 19.6414 20.2073 20.4882 19.0105 18.3069 20.4882 20.769 18.3069 17.9817 19.0105 18.3069 14.8309 15.0299 18.3069 17.9817 15.0299 14.8991 0 2.15742e-11 0 0.21711 2.15742e-11 -1.61837e-11 0.21711 0.55555 0 0.21711 0 0.398476 0.21711 0.55555 0.398476 1.1111 6.38948e-12 2.35026e-11 1.25959 1.35264 2.35026e-11 1.28163e-11 1.35264 1.65258 1.25959 1.35264 2.51917 3.48665 1.35264 1.65258 3.48665 2.82122 1.28163e-11 9.82208e-12 1.65258 2.03142 9.82208e-12 -8.94498e-11 2.03142 3.112 1.65258 2.03142 2.82122 2.80404 2.03142 3.112 2.80404 3.22 0 -0.20789 0 -1.01587 -0.20789 -0.530061 -1.01587 -2.13767 0 -1.01587 0 -2.19202 -1.01587 -2.13767 -2.19202 -4.02372 -8.94498e-11 -2.31559e-10 3.112 5.11798 -2.31559e-10 -3.88012e-10 5.11798 5.02636 3.112 5.11798 3.22 2.80102 5.11798 5.02636 2.80102 2.83678 -17.3107 -18.5417 -21.2 -22.1809 -18.5417 -19.6414 -22.1809 -23.1169 -21.2 -22.1809 -25.0499 -25.9694 -22.1809 -23.1169 -25.9694 -26.5924 -14.8309 -15.0299 -19.0105 -18.3069 -15.0299 -14.8991 -18.3069 -17.9817 -19.0105 -18.3069 -20.2073 -20.4882 -18.3069 -17.9817 -20.4882 -20.769 2.13767 2.64432 1.33386 1.70588 2.64432 3.15096 1.70588 2.07572 1.33386 1.70588 0.530061 0.722753 1.70588 2.07572 0.722753 0.987441 3.15096 3.5896 2.07572 2.44949 3.5896 4.02824 2.44949 2.8167 2.07572 2.44949 0.987441 1.29674 2.44949 2.8167 1.29674 1.62659 0 0.103945 0 -0.0792299 0.103945 0.20789 -0.0792299 -0.179724 0 -0.0792299 0 -0.230523 -0.0792299 -0.179724 -0.230523 -0.497679 0.20789 0.368975 -0.179724 -0.281444 0.368975 0.530061 -0.281444 -0.322002 -0.179724 -0.281444 -0.497679 -0.810069 -0.281444 -0.322002 -0.810069 -1.12767 0 -0.230523 0 -0.335976 -0.230523 -0.497679 -0.335976 -0.697625 0 -0.335976 0 -0.424183 -0.335976 -0.697625 -0.424183 -0.788132 -0.497679 -0.810069 -0.697625 -1.1665 -0.810069 -1.12767 -1.1665 -1.79539 -0.697625 -1.1665 -0.788132 -1.2367 -1.1665 -1.79539 -1.2367 -2.12877 0.530061 0.722753 -0.322002 -0.304085 0.722753 0.987441 -0.304085 -0.15837 -0.322002 -0.304085 -1.12767 -1.33296 -0.304085 -0.15837 -1.33296 -1.33976 0.987441 1.29674 -0.15837 0.099004 1.29674 1.62659 0.099004 0.418913 -0.15837 0.099004 -1.33976 -1.12718 0.099004 0.418913 -1.12718 -0.795057 -1.12767 -1.33296 -1.79539 -2.33823 -1.33296 -1.33976 -2.33823 -2.52851 -1.79539 -2.33823 -2.12877 -3.18421 -2.33823 -2.52851 -3.18421 -3.65014 -1.33976 -1.12718 -2.52851 -2.36056 -1.12718 -0.795057 -2.36056 -1.99555 -2.52851 -2.36056 -3.65014 -3.52274 -2.36056 -1.99555 -3.52274 -3.13326 4.02824 4.40978 2.8167 3.17848 4.40978 4.79132 3.17848 3.52679 2.8167 3.17848 1.62659 1.96551 3.17848 3.52679 1.96551 2.31029 4.79132 5.12312 3.52679 3.86844 5.12312 5.45491 3.86844 4.19468 3.52679 3.86844 2.31029 2.64951 3.86844 4.19468 2.64951 2.98355 8.6227 8.80838 7.32138 7.51443 8.80838 8.95301 7.51443 7.70268 7.32138 7.51443 6.02007 6.28813 7.51443 7.70268 6.28813 6.55618 5.45491 5.73749 4.19468 4.51548 5.73749 6.02007 4.51548 4.82782 4.19468 4.51548 2.98355 3.31245 4.51548 4.82782 3.31245 3.63558 1.62659 1.96551 0.418913 0.769432 1.96551 2.31029 0.769432 1.12243 0.418913 0.769432 -0.795057 -0.419523 0.769432 1.12243 -0.419523 -0.0516021 2.31029 2.64951 1.12243 1.46297 2.64951 2.98355 1.46297 1.7973 1.12243 1.46297 -0.0516021 0.29878 1.46297 1.7973 0.29878 0.636288 -0.795057 -0.419523 -1.99555 -1.58966 -0.419523 -0.0516021 -1.58966 -1.20515 -1.99555 -1.58966 -3.13326 -2.72232 -1.58966 -1.20515 -2.72232 -2.34248 -0.0516021 0.29878 -1.20515 -0.853931 0.29878 0.636288 -0.853931 -0.521541 -1.20515 -0.853931 -2.34248 -1.99781 -0.853931 -0.521541 -1.99781 -1.68383 2.98355 3.31245 1.7973 2.13213 3.31245 3.63558 2.13213 2.46872 1.7973 2.13213 0.636288 0.967389 2.13213 2.46872 0.967389 1.29588 3.63558 3.9593 2.46872 2.80275 3.9593 4.28301 2.80275 3.13495 2.46872 2.80275 1.29588 1.63352 2.80275 3.13495 1.63352 1.98274 0.636288 0.967389 -0.521541 -0.20842 0.967389 1.29588 -0.20842 0.102819 -0.521541 -0.20842 -1.68383 -1.40195 -0.20842 0.102819 -1.40195 -1.11054 1.29588 1.63352 0.102819 0.444312 1.63352 1.98274 0.444312 0.832366 0.102819 0.444312 -1.11054 -0.748172 0.444312 0.832366 -0.748172 -0.298792 0 -0.424183 0 -0.568142 -0.424183 -0.788132 -0.568142 -0.793681 0 -0.568142 0 -0.657439 -0.568142 -0.793681 -0.657439 -0.773192 -0.788132 -1.2367 -0.793681 -0.806156 -1.2367 -2.12877 -0.806156 -0.054381 -0.793681 -0.806156 -0.773192 -1.15225 -0.806156 -0.054381 -1.15225 -1.51423 0 -0.657439 0 -0.187327 -0.657439 -0.773192 -0.187327 -0.497041 0 -0.187327 0 -0.199238 -0.187327 -0.497041 -0.199238 -0.398476 -0.773192 -1.15225 -0.497041 -0.895542 -1.15225 -1.51423 -0.895542 -1.31266 -0.497041 -0.895542 -0.398476 -0.754788 -0.895542 -1.31266 -0.754788 -1.1111 -2.12877 -3.18421 -0.054381 -1.576 -3.18421 -3.65014 -1.576 -2.35899 -0.054381 -1.576 -1.51423 -1.82764 -1.576 -2.35899 -1.82764 -2.14106 -3.65014 -3.52274 -2.35899 -2.89495 -3.52274 -3.13326 -2.89495 -3.4735 -2.35899 -2.89495 -2.14106 -2.47857 -2.89495 -3.4735 -2.47857 -2.81607 -3.13326 -2.72232 -3.4735 -3.58064 -2.72232 -2.34248 -3.58064 -3.39982 -3.4735 -3.58064 -2.81607 -2.75056 -3.58064 -3.39982 -2.75056 -2.68505 -2.34248 -1.99781 -3.39982 -3.11843 -1.99781 -1.68383 -3.11843 -2.85037 -3.39982 -3.11843 -2.68505 -3.84691 -3.11843 -2.85037 -3.84691 -3.91216 -2.68505 -3.84691 -3.08585 -3.16754 -3.84691 -3.91216 -3.16754 -3.24087 -3.08585 -3.16754 -3.48665 -3.15394 -3.16754 -3.24087 -3.15394 -2.82122 -1.68383 -1.40195 -2.85037 -2.60938 -1.40195 -1.11054 -2.60938 -2.33982 -2.85037 -2.60938 -3.91216 -3.80537 -2.60938 -2.33982 -3.80537 -3.55798 -1.11054 -0.748172 -2.33982 -1.93102 -0.748172 -0.298792 -1.93102 -1.38767 -2.33982 -1.93102 -3.55798 -3.05178 -1.93102 -1.38767 -3.05178 -2.37317 -3.91216 -3.80537 -3.24087 -3.16753 -3.80537 -3.55798 -3.16753 -2.9375 -3.24087 -3.16753 -2.82122 -2.81263 -3.16753 -2.9375 -2.81263 -2.80404 -3.55798 -3.05178 -2.9375 -2.538 -3.05178 -2.37317 -2.538 -2.68467 -2.9375 -2.538 -2.80404 -3.01202 -2.538 -2.68467 -3.01202 -3.22 8.95301 9.08567 7.70268 7.89519 9.08567 9.231 7.89519 8.10289 7.70268 7.89519 6.55618 6.80206 7.89519 8.10289 6.80206 7.06141 9.231 9.40244 8.10289 8.33592 9.40244 9.61538 8.33592 8.61467 8.10289 8.33592 7.06141 7.33595 8.33592 8.61467 7.33595 7.64823 6.55618 6.80206 5.4196 5.71071 6.80206 7.06141 5.71071 6.0013 5.4196 5.71071 4.28301 4.59532 5.71071 6.0013 4.59532 4.9091 7.06141 7.33595 6.0013 6.2984 7.33595 7.64823 6.2984 6.61614 6.0013 6.2984 4.9091 5.22653 6.2984 6.61614 5.22653 5.55007 9.61538 9.92305 8.61467 8.9905 9.92305 10.4473 8.9905 9.44849 8.61467 8.9905 7.64823 8.01508 8.9905 9.44849 8.01508 8.39988 10.4473 10.9314 9.44849 9.82319 10.9314 11.1584 9.82319 10.0791 9.44849 9.82319 8.39988 8.72655 9.82319 10.0791 8.72655 9.00005 7.64823 8.01508 6.61614 6.96102 8.01508 8.39988 6.96102 7.3071 6.61614 6.96102 5.55007 5.87946 6.96102 7.3071 5.87946 6.20613 8.39988 8.72655 7.3071 7.62023 8.72655 9.00005 7.62023 7.91611 7.3071 7.62023 6.20613 6.52505 7.62023 7.91611 6.52505 6.84228 4.28301 4.59532 3.13495 3.46835 4.59532 4.9091 3.46835 3.79989 3.13495 3.46835 1.98274 2.33843 3.46835 3.79989 2.33843 2.69 4.9091 5.22653 3.79989 4.13126 5.22653 5.55007 4.13126 4.4608 3.79989 4.13126 2.69 3.03317 4.13126 4.4608 3.03317 3.36949 1.98274 2.33843 0.832366 1.23088 2.33843 2.69 1.23088 1.60116 0.832366 1.23088 -0.298792 0.146435 1.23088 1.60116 0.146435 0.523474 2.69 3.03317 1.60116 1.94386 3.03317 3.36949 1.94386 2.28054 1.60116 1.94386 0.523474 0.86285 1.94386 2.28054 0.86285 1.20029 5.55007 5.87946 4.4608 4.78848 5.87946 6.20613 4.78848 5.11692 4.4608 4.78848 3.36949 3.70271 4.78848 5.11692 3.70271 4.03647 6.20613 6.52505 5.11692 5.44697 6.52505 6.84228 5.44697 5.77779 5.11692 5.44697 4.03647 4.372 5.44697 5.77779 4.372 4.70704 3.36949 3.70271 2.28054 2.61812 3.70271 4.03647 2.61812 2.95715 2.28054 2.61812 1.20029 1.54282 2.61812 2.95715 1.54282 1.8787 4.03647 4.372 2.95715 3.29578 4.372 4.70704 3.29578 3.63384 2.95715 3.29578 1.8787 2.21176 3.29578 3.63384 2.21176 2.54973 11.1584 11.2596 10.0791 10.3107 11.2596 11.1713 10.3107 10.615 10.0791 10.3107 9.00005 9.28117 10.3107 10.615 9.28117 9.61269 11.1713 11.2037 10.615 10.9737 11.2037 11.9316 10.9737 11.1753 10.615 10.9737 9.61269 9.9251 10.9737 11.1753 9.9251 10.2031 9.00005 9.28117 7.91611 8.22851 9.28117 9.61269 8.22851 8.55674 7.91611 8.22851 6.84228 7.16921 8.22851 8.55674 7.16921 7.49633 9.61269 9.9251 8.55674 8.86564 9.9251 10.2031 8.86564 9.16386 8.55674 8.86564 7.49633 7.80906 8.86564 9.16386 7.80906 8.13081 11.9316 12.2701 11.1753 11.1638 12.2701 12.8442 11.1638 10.8102 11.1753 11.1638 10.2031 10.4975 11.1638 10.8102 10.4975 10.978 12.8442 13.0955 10.8102 11.8395 13.0955 13.4956 11.8395 12.4496 10.8102 11.8395 10.978 11.4594 11.8395 12.4496 11.4594 11.7008 10.2031 10.4975 9.16386 9.52547 10.4975 10.978 9.52547 9.97614 9.16386 9.52547 8.13081 8.50359 9.52547 9.97614 8.50359 8.9027 10.978 11.4594 9.97614 10.3558 11.4594 11.7008 10.3558 10.6151 9.97614 10.3558 8.9027 9.24228 10.3558 10.6151 9.24228 9.51815 6.84228 7.16921 5.77779 6.10843 7.16921 7.49633 6.10843 6.43572 5.77779 6.10843 4.70704 5.0401 6.10843 6.43572 5.0401 5.37319 7.49633 7.80906 6.43572 6.75794 7.80906 8.13081 6.75794 7.09376 6.43572 6.75794 5.37319 5.70936 6.75794 7.09376 5.70936 6.04984 4.70704 5.0401 3.63384 3.97143 5.0401 5.37319 3.97143 4.31016 3.63384 3.97143 2.54973 2.89719 3.97143 4.31016 2.89719 3.24755 5.37319 5.70936 4.31016 4.65081 5.70936 6.04984 4.65081 4.99089 4.31016 4.65081 3.24755 3.59368 4.65081 4.99089 3.59368 3.93453 8.13081 8.50359 7.09376 7.45488 8.50359 8.9027 7.45488 7.8173 7.09376 7.45488 6.04984 6.39393 7.45488 7.8173 6.39393 6.73206 8.9027 9.24228 7.8173 8.14113 9.24228 9.51815 8.14113 8.4391 7.8173 8.14113 6.73206 7.05864 8.14113 8.4391 7.05864 7.37888 6.04984 6.39393 4.99089 5.32793 6.39393 6.73206 5.32793 5.66327 4.99089 5.32793 3.93453 4.27185 5.32793 5.66327 4.27185 4.60831 6.73206 7.05864 5.66327 5.998 7.05864 7.37888 5.998 6.33207 5.66327 5.998 4.60831 4.94552 5.998 6.33207 4.94552 5.28154 -0.298792 0.146435 -1.38767 -0.911239 0.146435 0.523474 -0.911239 -0.548293 -1.38767 -0.911239 -2.37317 -1.9525 -0.911239 -0.548293 -1.9525 -1.61849 0.523474 0.86285 -0.548293 -0.216007 0.86285 1.20029 -0.216007 0.126342 -0.548293 -0.216007 -1.61849 -1.29153 -0.216007 0.126342 -1.29153 -0.938972 -2.37317 -1.9525 -2.68467 -2.84101 -1.9525 -1.61849 -2.84101 -2.66088 -2.68467 -2.84101 -3.22 -3.01051 -2.84101 -2.66088 -3.01051 -2.80102 -1.61849 -1.29153 -2.66088 -2.33281 -1.29153 -0.938972 -2.33281 -1.98913 -2.66088 -2.33281 -2.80102 -2.8189 -2.33281 -1.98913 -2.8189 -2.83678 1.20029 1.54282 0.126342 0.465225 1.54282 1.8787 0.465225 0.785792 0.126342 0.465225 -0.938972 -0.619193 0.465225 0.785792 -0.619193 -0.325312 1.8787 2.21176 0.785792 1.107 2.21176 2.54973 1.107 1.45587 0.785792 1.107 -0.325312 -0.0110698 1.107 1.45587 -0.0110698 0.366693 -0.938972 -0.619193 -1.98913 -1.71301 -0.619193 -0.325312 -1.71301 -1.45534 -1.98913 -1.71301 -2.83678 -2.78535 -1.71301 -1.45534 -2.78535 -2.57032 -0.325312 -0.0110698 -1.45534 -1.1338 -0.0110698 0.366693 -1.1338 -0.702705 -1.45534 -1.1338 -2.57032 -2.23336 -1.1338 -0.702705 -2.23336 -1.68804 -2.83678 -2.78535 -3.93157 -3.20788 -2.78535 -2.57032 -3.20788 -2.4817 -3.93157 -3.20788 -5.02636 -3.56265 -3.20788 -2.4817 -3.56265 -2.09895 -2.57032 -2.23336 -2.4817 -1.81922 -2.23336 -1.68804 -1.81922 -1.66874 -2.4817 -1.81922 -2.09895 -1.47744 -1.81922 -1.66874 -1.47744 -0.855926 2.54973 2.89719 1.45587 1.83256 2.89719 3.24755 1.83256 2.20285 1.45587 1.83256 0.366693 0.784142 1.83256 2.20285 0.784142 1.16872 3.24755 3.59368 2.20285 2.54884 3.59368 3.93453 2.54884 2.8832 2.20285 2.54884 1.16872 1.50918 2.54884 2.8832 1.50918 1.83748 0.366693 0.784142 -0.702705 -0.235314 0.784142 1.16872 -0.235314 0.144085 -0.702705 -0.235314 -1.68804 -1.21435 -0.235314 0.144085 -1.21435 -0.878873 1.16872 1.50918 0.144085 0.468414 1.50918 1.83748 0.468414 0.79387 0.144085 0.468414 -0.878873 -0.573346 0.468414 0.79387 -0.573346 -0.246359 3.93453 4.27185 2.8832 3.2188 4.27185 4.60831 3.2188 3.55723 2.8832 3.2188 1.83748 2.17425 3.2188 3.55723 2.17425 2.51061 4.60831 4.94552 3.55723 3.89495 4.94552 5.28154 3.89495 4.23056 3.55723 3.89495 2.51061 2.8417 3.89495 4.23056 2.8417 3.17297 1.83748 2.17425 0.79387 1.12827 2.17425 2.51061 1.12827 1.45289 0.79387 1.12827 -0.246359 0.0790694 1.12827 1.45289 0.0790694 0.380263 2.51061 2.8417 1.45289 1.77136 2.8417 3.17297 1.77136 2.10865 1.45289 1.77136 0.380263 0.688655 1.77136 2.10865 0.688655 1.04836 -1.68804 -1.21435 -1.66874 -1.94278 -1.21435 -0.878873 -1.94278 -1.84531 -1.66874 -1.94278 -0.855926 -0.802922 -1.94278 -1.84531 -0.802922 -0.749918 -0.878873 -0.573346 -1.84531 -1.5921 -0.573346 -0.246359 -1.5921 -1.26484 -1.84531 -1.5921 -0.749918 -1.94736 -1.5921 -1.26484 -1.94736 -2.04981 -0.749918 -1.94736 -0.374959 -0.613378 -1.94736 -2.04981 -0.613378 -0.806006 -0.374959 -0.613378 1.72118e-10 -8.98467e-11 -0.613378 -0.806006 -8.98467e-11 -8.9816e-11 -0.246359 0.0790694 -1.26484 -0.9706 0.0790694 0.380263 -0.9706 -0.709088 -1.26484 -0.9706 -2.04981 -1.95741 -0.9706 -0.709088 -1.95741 -1.77032 0.380263 0.688655 -0.709088 -0.399652 0.688655 1.04836 -0.399652 0.0043461 -0.709088 -0.399652 -1.77032 -1.46625 -0.399652 0.0043461 -1.46625 -0.961524 -2.04981 -1.95741 -0.806006 -0.878458 -1.95741 -1.77032 -0.878458 -0.828438 -0.806006 -0.878458 -8.9816e-11 1.15689e-10 -0.878458 -0.828438 1.15689e-10 4.8663e-12 -1.77032 -1.46625 -0.828438 -0.785079 -1.46625 -0.961524 -0.785079 -0.955884 -0.828438 -0.785079 4.8663e-12 -6.18209e-11 -0.785079 -0.955884 -6.18209e-11 1.32458e-10 13.4956 13.9627 12.4496 12.8301 13.9627 14.4673 12.8301 13.1405 12.4496 12.8301 11.7008 11.8291 12.8301 13.1405 11.8291 11.8137 14.4673 14.9437 13.1405 13.588 14.9437 15.4102 13.588 13.9956 13.1405 13.588 11.8137 11.6857 13.588 13.9956 11.6857 12.5988 11.7008 11.8291 10.6151 10.8409 11.8291 11.8137 10.8409 11.1155 10.6151 10.8409 9.51815 9.79109 10.8409 11.1155 9.79109 10.1179 11.8137 11.6857 11.1155 11.4934 11.6857 12.5988 11.4934 11.8272 11.1155 11.4934 10.1179 10.4737 11.4934 11.8272 10.4737 10.8112 15.4102 15.8923 13.9956 14.5105 15.8923 16.5098 14.5105 15.0632 13.9956 14.5105 12.5988 13.1722 14.5105 15.0632 13.1722 13.6167 12.5988 13.1722 11.8272 12.0668 13.1722 13.6167 12.0668 12.2149 11.8272 12.0668 10.8112 11.1352 12.0668 12.2149 11.1352 11.5543 13.6167 14.1967 12.2149 11.8694 14.1967 14.7767 11.8694 13.3024 12.2149 11.8694 11.5543 12.1693 11.8694 13.3024 12.1693 12.8844 9.51815 9.79109 8.4391 8.74804 9.79109 10.1179 8.74804 9.08526 8.4391 8.74804 7.37888 7.70708 8.74804 9.08526 7.70708 8.04385 10.1179 10.4737 9.08526 9.42613 10.4737 10.8112 9.42613 9.75501 9.08526 9.42613 8.04385 8.37569 9.42613 9.75501 8.37569 8.7094 7.37888 7.70708 6.33207 6.66556 7.70708 8.04385 6.66556 6.99704 6.33207 6.66556 5.28154 5.61403 6.66556 6.99704 5.61403 5.94404 8.04385 8.37569 6.99704 7.32539 8.37569 8.7094 7.32539 7.66372 6.99704 7.32539 5.94404 6.27506 7.32539 7.66372 6.27506 6.61027 10.8112 11.1352 9.75501 10.1133 11.1352 11.5543 10.1133 10.5621 9.75501 10.1133 8.7094 9.07866 10.1133 10.5621 9.07866 9.51072 11.5543 12.1693 10.5621 11.121 12.1693 12.8844 11.121 11.6893 10.5621 11.121 9.51072 9.98777 11.121 11.6893 9.98777 10.4641 8.7094 9.07866 7.66372 8.0263 9.07866 9.51072 8.0263 8.41848 7.66372 8.0263 6.61027 6.95206 8.0263 8.41848 6.95206 7.29784 9.51072 9.98777 8.41848 8.82423 9.98777 10.4641 8.82423 9.22994 8.41848 8.82423 7.29784 7.64653 8.82423 9.22994 7.64653 7.99502 14.7767 15.4581 13.3024 14.2521 15.4581 16.1395 14.2521 14.9664 13.3024 14.2521 12.8844 13.4916 14.2521 14.9664 13.4916 14.0122 16.1395 16.748 14.9664 15.574 16.748 17.3564 15.574 16.0972 14.9664 15.574 14.0122 14.4989 15.574 16.0972 14.4989 14.9482 17.3564 17.8753 16.0972 16.574 17.8753 18.3942 16.574 16.9902 16.0972 16.574 14.9482 15.3434 16.574 16.9902 15.3434 15.6923 18.3942 18.8839 16.9902 17.3645 18.8839 19.3736 17.3645 17.7171 16.9902 17.3645 15.6923 15.9506 17.3645 17.7171 15.9506 16.0847 12.8844 13.4916 11.6893 12.2069 13.4916 14.0122 12.2069 12.679 11.6893 12.2069 10.4641 10.9152 12.2069 12.679 10.9152 11.3426 14.0122 14.4989 12.679 13.1262 14.4989 14.9482 13.1262 13.544 12.679 13.1262 11.3426 11.7522 13.1262 13.544 11.7522 12.1398 10.4641 10.9152 9.22994 9.62491 10.9152 11.3426 9.62491 10.0097 9.22994 9.62491 7.99502 8.34251 9.62491 10.0097 8.34251 8.6863 11.3426 11.7522 10.0097 10.3832 11.7522 12.1398 10.3832 10.7428 10.0097 10.3832 8.6863 9.02507 10.3832 10.7428 9.02507 9.35802 14.9482 15.3434 13.544 13.9245 15.3434 15.6923 13.9245 14.2655 13.544 13.9245 12.1398 12.5015 13.9245 14.2655 12.5015 12.8339 15.6923 15.9506 14.2655 14.5577 15.9506 16.0847 14.5577 14.8488 14.2655 14.5577 12.8339 13.147 14.5577 14.8488 13.147 13.4609 12.1398 12.5015 10.7428 11.0876 12.5015 12.8339 11.0876 11.4175 10.7428 11.0876 9.35802 9.68664 11.0876 11.4175 9.68664 10.0118 12.8339 13.147 11.4175 11.7385 13.147 13.4609 11.7385 12.0597 11.4175 11.7385 10.0118 10.3316 11.7385 12.0597 10.3316 10.648 5.28154 5.61403 4.23056 4.56283 5.61403 5.94404 4.56283 4.89207 4.23056 4.56283 3.17297 3.50995 4.56283 4.89207 3.50995 3.84523 5.94404 6.27506 4.89207 5.21882 6.27506 6.61027 5.21882 5.54139 4.89207 5.21882 3.84523 4.16944 5.21882 5.54139 4.16944 4.479 3.17297 3.50995 2.10865 2.46944 3.50995 3.84523 2.46944 2.82129 2.10865 2.46944 1.04836 1.44542 2.46944 2.82129 1.44542 1.81587 