# vtk DataFile Version 3.0
#This file was generated by the deal.II library on 2015/9/2 at 7:53: 5
ASCII
DATASET UNSTRUCTURED_GRID

POINTS 3200 double
0 0 0
0.05 0 0
0 0.05 0
0.05 0.05 0
0.05 0 0
0.1 0 0
0.05 0.05 0
0.1 0.05 0
0.1 0 0
0.15 0 0
0.1 0.05 0
0.15 0.05 0
0.15 0 0
0.2 0 0
0.15 0.05 0
0.2 0.05 0
0.2 0 0
0.25 0 0
0.2 0.05 0
0.25 0.05 0
0.25 0 0
0.3 0 0
0.25 0.05 0
0.3 0.05 0
0.3 0 0
0.35 0 0
0.3 0.05 0
0.35 0.05 0
0.35 0 0
0.4 0 0
0.35 0.05 0
0.4 0.05 0
0.4 0 0
0.45 0 0
0.4 0.05 0
0.45 0.05 0
0.45 0 0
0.5 0 0
0.45 0.05 0
0.5 0.05 0
0.5 0 0
0.55 0 0
0.5 0.05 0
0.55 0.05 0
0.55 0 0
0.6 0 0
0.55 0.05 0
0.6 0.05 0
0.6 0 0
0.65 0 0
0.6 0.05 0
0.65 0.05 0
0.65 0 0
0.7 0 0
0.65 0.05 0
0.7 0.05 0
0.7 0 0
0.75 0 0
0.7 0.05 0
0.75 0.05 0
0.75 0 0
0.8 0 0
0.75 0.05 0
0.8 0.05 0
0.8 0 0
0.85 0 0
0.8 0.05 0
0.85 0.05 0
0.85 0 0
0.9 0 0
0.85 0.05 0
0.9 0.05 0
0.9 0 0
0.95 0 0
0.9 0.05 0
0.95 0.05 0
0.95 0 0
1 0 0
0.95 0.05 0
1 0.05 0
1 0 0
1.05 0 0
1 0.05 0
1.05 0.05 0
1.05 0 0
1.1 0 0
1.05 0.05 0
1.1 0.05 0
1.1 0 0
1.15 0 0
1.1 0.05 0
1.15 0.05 0
1.15 0 0
1.2 0 0
1.15 0.05 0
1.2 0.05 0
1.2 0 0
1.25 0 0
1.2 0.05 0
1.25 0.05 0
1.25 0 0
1.3 0 0
1.25 0.05 0
1.3 0.05 0
1.3 0 0
1.35 0 0
1.3 0.05 0
1.35 0.05 0
1.35 0 0
1.4 0 0
1.35 0.05 0
1.4 0.05 0
1.4 0 0
1.45 0 0
1.4 0.05 0
1.45 0.05 0
1.45 0 0
1.5 0 0
1.45 0.05 0
1.5 0.05 0
1.5 0 0
1.55 0 0
1.5 0.05 0
1.55 0.05 0
1.55 0 0
1.6 0 0
1.55 0.05 0
1.6 0.05 0
1.6 0 0
1.65 0 0
1.6 0.05 0
1.65 0.05 0
1.65 0 0
1.7 0 0
1.65 0.05 0
1.7 0.05 0
1.7 0 0
1.75 0 0
1.7 0.05 0
1.75 0.05 0
1.75 0 0
1.8 0 0
1.75 0.05 0
1.8 0.05 0
1.8 0 0
1.85 0 0
1.8 0.05 0
1.85 0.05 0
1.85 0 0
1.9 0 0
1.85 0.05 0
1.9 0.05 0
1.9 0 0
1.95 0 0
1.9 0.05 0
1.95 0.05 0
1.95 0 0
2 0 0
1.95 0.05 0
2 0.05 0
0 0.05 0
0.05 0.05 0
0 0.1 0
0.05 0.1 0
0.05 0.05 0
0.1 0.05 0
0.05 0.1 0
0.1 0.1 0
0.1 0.05 0
0.15 0.05 0
0.1 0.1 0
0.15 0.1 0
0.15 0.05 0
0.2 0.05 0
0.15 0.1 0
0.2 0.1 0
0.2 0.05 0
0.25 0.05 0
0.2 0.1 0
0.25 0.1 0
0.25 0.05 0
0.3 0.05 0
0.25 0.1 0
0.3 0.1 0
0.3 0.05 0
0.35 0.05 0
0.3 0.1 0
0.35 0.1 0
0.35 0.05 0
0.4 0.05 0
0.35 0.1 0
0.4 0.1 0
0.4 0.05 0
0.45 0.05 0
0.4 0.1 0
0.45 0.1 0
0.45 0.05 0
0.5 0.05 0
0.45 0.1 0
0.5 0.1 0
0.5 0.05 0
0.55 0.05 0
0.5 0.1 0
0.55 0.1 0
0.55 0.05 0
0.6 0.05 0
0.55 0.1 0
0.6 0.1 0
0.6 0.05 0
0.65 0.05 0
0.6 0.1 0
0.65 0.1 0
0.65 0.05 0
0.7 0.05 0
0.65 0.1 0
0.7 0.1 0
0.7 0.05 0
0.75 0.05 0
0.7 0.1 0
0.75 0.1 0
0.75 0.05 0
0.8 0.05 0
0.75 0.1 0
0.8 0.1 0
0.8 0.05 0
0.85 0.05 0
0.8 0.1 0
0.85 0.1 0
0.85 0.05 0
0.9 0.05 0
0.85 0.1 0
0.9 0.1 0
0.9 0.05 0
0.95 0.05 0
0.9 0.1 0
0.95 0.1 0
0.95 0.05 0
1 0.05 0
0.95 0.1 0
1 0.1 0
1 0.05 0
1.05 0.05 0
1 0.1 0
1.05 0.1 0
1.05 0.05 0
1.1 0.05 0
1.05 0.1 0
1.1 0.1 0
1.1 0.05 0
1.15 0.05 0
1.1 0.1 0
1.15 0.1 0
1.15 0.05 0
1.2 0.05 0
1.15 0.1 0
1.2 0.1 0
1.2 0.05 0
1.25 0.05 0
1.2 0.1 0
1.25 0.1 0
1.25 0.05 0
1.3 0.05 0
1.25 0.1 0
1.3 0.1 0
1.3 0.05 0
1.35 0.05 0
1.3 0.1 0
1.35 0.1 0
1.35 0.05 0
1.4 0.05 0
1.35 0.1 0
1.4 0.1 0
1.4 0.05 0
1.45 0.05 0
1.4 0.1 0
1.45 0.1 0
1.45 0.05 0
1.5 0.05 0
1.45 0.1 0
1.5 0.1 0
1.5 0.05 0
1.55 0.05 0
1.5 0.1 0
1.55 0.1 0
1.55 0.05 0
1.6 0.05 0
1.55 0.1 0
1.6 0.1 0
1.6 0.05 0
1.65 0.05 0
1.6 0.1 0
1.65 0.1 0
1.65 0.05 0
1.7 0.05 0
1.65 0.1 0
1.7 0.1 0
1.7 0.05 0
1.75 0.05 0
1.7 0.1 0
1.75 0.1 0
1.75 0.05 0
1.8 0.05 0
1.75 0.1 0
1.8 0.1 0
1.8 0.05 0
1.85 0.05 0
1.8 0.1 0
1.85 0.1 0
1.85 0.05 0
1.9 0.05 0
1.85 0.1 0
1.9 0.1 0
1.9 0.05 0
1.95 0.05 0
1.9 0.1 0
1.95 0.1 0
1.95 0.05 0
2 0.05 0
1.95 0.1 0
2 0.1 0
0 0.1 0
0.05 0.1 0
0 0.15 0
0.05 0.15 0
0.05 0.1 0
0.1 0.1 0
0.05 0.15 0
0.1 0.15 0
0.1 0.1 0
0.15 0.1 0
0.1 0.15 0
0.15 0.15 0
0.15 0.1 0
0.2 0.1 0
0.15 0.15 0
0.2 0.15 0
0.2 0.1 0
0.25 0.1 0
0.2 0.15 0
0.25 0.15 0
0.25 0.1 0
0.3 0.1 0
0.25 0.15 0
0.3 0.15 0
0.3 0.1 0
0.35 0.1 0
0.3 0.15 0
0.35 0.15 0
0.35 0.1 0
0.4 0.1 0
0.35 0.15 0
0.4 0.15 0
0.4 0.1 0
0.45 0.1 0
0.4 0.15 0
0.45 0.15 0
0.45 0.1 0
0.5 0.1 0
0.45 0.15 0
0.5 0.15 0
0.5 0.1 0
0.55 0.1 0
0.5 0.15 0
0.55 0.15 0
0.55 0.1 0
0.6 0.1 0
0.55 0.15 0
0.6 0.15 0
0.6 0.1 0
0.65 0.1 0
0.6 0.15 0
0.65 0.15 0
0.65 0.1 0
0.7 0.1 0
0.65 0.15 0
0.7 0.15 0
0.7 0.1 0
0.75 0.1 0
0.7 0.15 0
0.75 0.15 0
0.75 0.1 0
0.8 0.1 0
0.75 0.15 0
0.8 0.15 0
0.8 0.1 0
0.85 0.1 0
0.8 0.15 0
0.85 0.15 0
0.85 0.1 0
0.9 0.1 0
0.85 0.15 0
0.9 0.15 0
0.9 0.1 0
0.95 0.1 0
0.9 0.15 0
0.95 0.15 0
0.95 0.1 0
1 0.1 0
0.95 0.15 0
1 0.15 0
1 0.1 0
1.05 0.1 0
1 0.15 0
1.05 0.15 0
1.05 0.1 0
1.1 0.1 0
1.05 0.15 0
1.1 0.15 0
1.1 0.1 0
1.15 0.1 0
1.1 0.15 0
1.15 0.15 0
1.15 0.1 0
1.2 0.1 0
1.15 0.15 0
1.2 0.15 0
1.2 0.1 0
1.25 0.1 0
1.2 0.15 0
1.25 0.15 0
1.25 0.1 0
1.3 0.1 0
1.25 0.15 0
1.3 0.15 0
1.3 0.1 0
1.35 0.1 0
1.3 0.15 0
1.35 0.15 0
1.35 0.1 0
1.4 0.1 0
1.35 0.15 0
1.4 0.15 0
1.4 0.1 0
1.45 0.1 0
1.4 0.15 0
1.45 0.15 0
1.45 0.1 0
1.5 0.1 0
1.45 0.15 0
1.5 0.15 0
1.5 0.1 0
1.55 0.1 0
1.5 0.15 0
1.55 0.15 0
1.55 0.1 0
1.6 0.1 0
1.55 0.15 0
1.6 0.15 0
1.6 0.1 0
1.65 0.1 0
1.6 0.15 0
1.65 0.15 0
1.65 0.1 0
1.7 0.1 0
1.65 0.15 0
1.7 0.15 0
1.7 0.1 0
1.75 0.1 0
1.7 0.15 0
1.75 0.15 0
1.75 0.1 0
1.8 0.1 0
1.75 0.15 0
1.8 0.15 0
1.8 0.1 0
1.85 0.1 0
1.8 0.15 0
1.85 0.15 0
1.85 0.1 0
1.9 0.1 0
1.85 0.15 0
1.9 0.15 0
1.9 0.1 0
1.95 0.1 0
1.9 0.15 0
1.95 0.15 0
1.95 0.1 0
2 0.1 0
1.95 0.15 0
2 0.15 0
0 0.15 0
0.05 0.15 0
0 0.2 0
0.05 0.2 0
0.05 0.15 0
0.1 0.15 0
0.05 0.2 0
0.1 0.2 0
0.1 0.15 0
0.15 0.15 0
0.1 0.2 0
0.15 0.2 0
0.15 0.15 0
0.2 0.15 0
0.15 0.2 0
0.2 0.2 0
0.2 0.15 0
0.25 0.15 0
0.2 0.2 0
0.25 0.2 0
0.25 0.15 0
0.3 0.15 0
0.25 0.2 0
0.3 0.2 0
0.3 0.15 0
0.35 0.15 0
0.3 0.2 0
0.35 0.2 0
0.35 0.15 0
0.4 0.15 0
0.35 0.2 0
0.4 0.2 0
0.4 0.15 0
0.45 0.15 0
0.4 0.2 0
0.45 0.2 0
0.45 0.15 0
0.5 0.15 0
0.45 0.2 0
0.5 0.2 0
0.5 0.15 0
0.55 0.15 0
0.5 0.2 0
0.55 0.2 0
0.55 0.15 0
0.6 0.15 0
0.55 0.2 0
0.6 0.2 0
0.6 0.15 0
0.65 0.15 0
0.6 0.2 0
0.65 0.2 0
0.65 0.15 0
0.7 0.15 0
0.65 0.2 0
0.7 0.2 0
0.7 0.15 0
0.75 0.15 0
0.7 0.2 0
0.75 0.2 0
0.75 0.15 0
0.8 0.15 0
0.75 0.2 0
0.8 0.2 0
0.8 0.15 0
0.85 0.15 0
0.8 0.2 0
0.85 0.2 0
0.85 0.15 0
0.9 0.15 0
0.85 0.2 0
0.9 0.2 0
0.9 0.15 0
0.95 0.15 0
0.9 0.2 0
0.95 0.2 0
0.95 0.15 0
1 0.15 0
0.95 0.2 0
1 0.2 0
1 0.15 0
1.05 0.15 0
1 0.2 0
1.05 0.2 0
1.05 0.15 0
1.1 0.15 0
1.05 0.2 0
1.1 0.2 0
1.1 0.15 0
1.15 0.15 0
1.1 0.2 0
1.15 0.2 0
1.15 0.15 0
1.2 0.15 0
1.15 0.2 0
1.2 0.2 0
1.2 0.15 0
1.25 0.15 0
1.2 0.2 0
1.25 0.2 0
1.25 0.15 0
1.3 0.15 0
1.25 0.2 0
1.3 0.2 0
1.3 0.15 0
1.35 0.15 0
1.3 0.2 0
1.35 0.2 0
1.35 0.15 0
1.4 0.15 0
1.35 0.2 0
1.4 0.2 0
1.4 0.15 0
1.45 0.15 0
1.4 0.2 0
1.45 0.2 0
1.45 0.15 0
1.5 0.15 0
1.45 0.2 0
1.5 0.2 0
1.5 0.15 0
1.55 0.15 0
1.5 0.2 0
1.55 0.2 0
1.55 0.15 0
1.6 0.15 0
1.55 0.2 0
1.6 0.2 0
1.6 0.15 0
1.65 0.15 0
1.6 0.2 0
1.65 0.2 0
1.65 0.15 0
1.7 0.15 0
1.65 0.2 0
1.7 0.2 0
1.7 0.15 0
1.75 0.15 0
1.7 0.2 0
1.75 0.2 0
1.75 0.15 0
1.8 0.15 0
1.75 0.2 0
1.8 0.2 0
1.8 0.15 0
1.85 0.15 0
1.8 0.2 0
1.85 0.2 0
1.85 0.15 0
1.9 0.15 0
1.85 0.2 0
1.9 0.2 0
1.9 0.15 0
1.95 0.15 0
1.9 0.2 0
1.95 0.2 0
1.95 0.15 0
2 0.15 0
1.95 0.2 0
2 0.2 0
0 0.2 0
0.05 0.2 0
0 0.25 0
0.05 0.25 0
0.05 0.2 0
0.1 0.2 0
0.05 0.25 0
0.1 0.25 0
0.1 0.2 0
0.15 0.2 0
0.1 0.25 0
0.15 0.25 0
0.15 0.2 0
0.2 0.2 0
0.15 0.25 0
0.2 0.25 0
0.2 0.2 0
0.25 0.2 0
0.2 0.25 0
0.25 0.25 0
0.25 0.2 0
0.3 0.2 0
0.25 0.25 0
0.3 0.25 0
0.3 0.2 0
0.35 0.2 0
0.3 0.25 0
0.35 0.25 0
0.35 0.2 0
0.4 0.2 0
0.35 0.25 0
0.4 0.25 0
0.4 0.2 0
0.45 0.2 0
0.4 0.25 0
0.45 0.25 0
0.45 0.2 0
0.5 0.2 0
0.45 0.25 0
0.5 0.25 0
0.5 0.2 0
0.55 0.2 0
0.5 0.25 0
0.55 0.25 0
0.55 0.2 0
0.6 0.2 0
0.55 0.25 0
0.6 0.25 0
0.6 0.2 0
0.65 0.2 0
0.6 0.25 0
0.65 0.25 0
0.65 0.2 0
0.7 0.2 0
0.65 0.25 0
0.7 0.25 0
0.7 0.2 0
0.75 0.2 0
0.7 0.25 0
0.75 0.25 0
0.75 0.2 0
0.8 0.2 0
0.75 0.25 0
0.8 0.25 0
0.8 0.2 0
0.85 0.2 0
0.8 0.25 0
0.85 0.25 0
0.85 0.2 0
0.9 0.2 0
0.85 0.25 0
0.9 0.25 0
0.9 0.2 0
0.95 0.2 0
0.9 0.25 0
0.95 0.25 0
0.95 0.2 0
1 0.2 0
0.95 0.25 0
1 0.25 0
1 0.2 0
1.05 0.2 0
1 0.25 0
1.05 0.25 0
1.05 0.2 0
1.1 0.2 0
1.05 0.25 0
1.1 0.25 0
1.1 0.2 0
1.15 0.2 0
1.1 0.25 0
1.15 0.25 0
1.15 0.2 0
1.2 0.2 0
1.15 0.25 0
1.2 0.25 0
1.2 0.2 0
1.25 0.2 0
1.2 0.25 0
1.25 0.25 0
1.25 0.2 0
1.3 0.2 0
1.25 0.25 0
1.3 0.25 0
1.3 0.2 0
1.35 0.2 0
1.3 0.25 0
1.35 0.25 0
1.35 0.2 0
1.4 0.2 0
1.35 0.25 0
1.4 0.25 0
1.4 0.2 0
1.45 0.2 0
1.4 0.25 0
1.45 0.25 0
1.45 0.2 0
1.5 0.2 0
1.45 0.25 0
1.5 0.25 0
1.5 0.2 0
1.55 0.2 0
1.5 0.25 0
1.55 0.25 0
1.55 0.2 0
1.6 0.2 0
1.55 0.25 0
1.6 0.25 0
1.6 0.2 0
1.65 0.2 0
1.6 0.25 0
1.65 0.25 0
1.65 0.2 0
1.7 0.2 0
1.65 0.25 0
1.7 0.25 0
1.7 0.2 0
1.75 0.2 0
1.7 0.25 0
1.75 0.25 0
1.75 0.2 0
1.8 0.2 0
1.75 0.25 0
1.8 0.25 0
1.8 0.2 0
1.85 0.2 0
1.8 0.25 0
1.85 0.25 0
1.85 0.2 0
1.9 0.2 0
1.85 0.25 0
1.9 0.25 0
1.9 0.2 0
1.95 0.2 0
1.9 0.25 0
1.95 0.25 0
1.95 0.2 0
2 0.2 0
1.95 0.25 0
2 0.25 0
0 0.25 0
0.05 0.25 0
0 0.3 0
0.05 0.3 0
0.05 0.25 0
0.1 0.25 0
0.05 0.3 0
0.1 0.3 0
0.1 0.25 0
0.15 0.25 0
0.1 0.3 0
0.15 0.3 0
0.15 0.25 0
0.2 0.25 0
0.15 0.3 0
0.2 0.3 0
0.2 0.25 0
0.25 0.25 0
0.2 0.3 0
0.25 0.3 0
0.25 0.25 0
0.3 0.25 0
0.25 0.3 0
0.3 0.3 0
0.3 0.25 0
0.35 0.25 0
0.3 0.3 0
0.35 0.3 0
0.35 0.25 0
0.4 0.25 0
0.35 0.3 0
0.4 0.3 0
0.4 0.25 0
0.45 0.25 0
0.4 0.3 0
0.45 0.3 0
0.45 0.25 0
0.5 0.25 0
0.45 0.3 0
0.5 0.3 0
0.5 0.25 0
0.55 0.25 0
0.5 0.3 0
0.55 0.3 0
0.55 0.25 0
0.6 0.25 0
0.55 0.3 0
0.6 0.3 0
0.6 0.25 0
0.65 0.25 0
0.6 0.3 0
0.65 0.3 0
0.65 0.25 0
0.7 0.25 0
0.65 0.3 0
0.7 0.3 0
0.7 0.25 0
0.75 0.25 0
0.7 0.3 0
0.75 0.3 0
0.75 0.25 0
0.8 0.25 0
0.75 0.3 0
0.8 0.3 0
0.8 0.25 0
0.85 0.25 0
0.8 0.3 0
0.85 0.3 0
0.85 0.25 0
0.9 0.25 0
0.85 0.3 0
0.9 0.3 0
0.9 0.25 0
0.95 0.25 0
0.9 0.3 0
0.95 0.3 0
0.95 0.25 0
1 0.25 0
0.95 0.3 0
1 0.3 0
1 0.25 0
1.05 0.25 0
1 0.3 0
1.05 0.3 0
1.05 0.25 0
1.1 0.25 0
1.05 0.3 0
1.1 0.3 0
1.1 0.25 0
1.15 0.25 0
1.1 0.3 0
1.15 0.3 0
1.15 0.25 0
1.2 0.25 0
1.15 0.3 0
1.2 0.3 0
1.2 0.25 0
1.25 0.25 0
1.2 0.3 0
1.25 0.3 0
1.25 0.25 0
1.3 0.25 0
1.25 0.3 0
1.3 0.3 0
1.3 0.25 0
1.35 0.25 0
1.3 0.3 0
1.35 0.3 0
1.35 0.25 0
1.4 0.25 0
1.35 0.3 0
1.4 0.3 0
1.4 0.25 0
1.45 0.25 0
1.4 0.3 0
1.45 0.3 0
1.45 0.25 0
1.5 0.25 0
[...]
POINT_DATA 3200
SCALARS x_displacement double 1
LOOKUP_TABLE default
0 8.29308 0 5.6423 8.29308 14.9659 5.6423 11.735 14.9659 21.1217 11.735 17.4841 21.1217 27.037 17.4841 22.9615 27.037 32.7747 22.9615 28.2287 32.7747 38.3569 28.2287 33.3206 38.3569 43.7898 33.3206 38.2549 43.7898 49.074 38.2549 43.0398 49.074 54.2077 43.0398 47.679 54.2077 59.1886 47.679 52.174 59.1886 64.0143 52.174 56.5247 64.0143 68.6826 56.5247 60.7309 68.6826 73.1918 60.7309 64.792 73.1918 77.5405 64.792 68.7074 77.5405 81.7275 68.7074 72.4765 81.7275 85.7521 72.4765 76.099 85.7521 89.6136 76.099 79.5744 89.6136 93.3116 79.5744 82.9024 93.3116 96.8458 82.9024 86.0828 96.8458 100.216 86.0828 89.1153 100.216 103.421 89.1153 91.9996 103.421 106.462 91.9996 94.7355 106.462 109.337 94.7355 97.3224 109.337 112.047 97.3224 99.7596 112.047 114.588 99.7596 102.046 114.588 116.961 102.046 104.181 116.961 119.162 104.181 106.162 119.162 121.187 106.162 107.987 121.187 123.031 107.987 109.652 123.031 124.687 109.652 111.153 124.687 126.147 111.153 112.485 126.147 127.399 112.485 113.642 127.399 128.433 113.642 114.619 128.433 129.24 114.619 115.412 129.24 129.817 115.412 116.022 129.817 130.174 116.022 116.454 130.174 130.341 116.454 116.727 130.341 130.374 116.727 116.869 130.374 130.35 116.869 116.921 130.35 130.336 116.921 116.934 0 5.6423 0 4.62208 5.6423 11.735 4.62208 9.51192 11.735 17.4841 9.51192 14.5001 17.4841 22.9615 14.5001 19.3679 22.9615 28.2287 19.3679 24.0826 28.2287 33.3206 24.0826 28.6448 33.3206 38.2549 28.6448 33.0619 38.2549 43.0398 33.0619 37.3395 43.0398 47.679 37.3395 41.4816 47.679 52.174 41.4816 45.4905 52.174 56.5247 45.4905 49.3673 56.5247 60.7309 49.3673 53.1128 60.7309 64.792 53.1128 56.7272 64.792 68.7074 56.7272 60.2106 68.7074 72.4765 60.2106 63.5629 72.4765 76.099 63.5629 66.7841 76.099 79.5744 66.7841 69.8741 79.5744 82.9024 69.8741 72.8327 82.9024 86.0828 72.8327 75.6599 86.0828 89.1153 75.6599 78.3555 89.1153 91.9996 78.3555 80.9195 91.9996 94.7355 80.9195 83.3515 94.7355 97.3224 83.3515 85.6515 97.3224 99.7596 85.6515 87.8191 99.7596 102.046 87.8191 89.8538 102.046 104.181 89.8538 91.7552 104.181 106.162 91.7552 93.5224 106.162 107.987 93.5224 95.1544 107.987 109.652 95.1544 96.65 109.652 111.153 96.65 98.0076 111.153 112.485 98.0076 99.2249 112.485 113.642 99.2249 100.299 113.642 114.619 100.299 101.227 114.619 115.412 101.227 102.005 115.412 116.022 102.005 102.627 116.022 116.454 102.627 103.091 116.454 116.727 103.091 103.4 116.727 116.869 103.4 103.565 116.869 116.921 103.565 103.62 116.921 116.934 103.62 103.626 0 4.62208 0 3.84116 4.62208 9.51192 3.84116 7.88959 9.51192 14.5001 7.88959 12.0552 14.5001 19.3679 12.0552 16.2288 19.3679 24.0826 16.2288 20.3278 24.0826 28.6448 20.3278 24.3209 28.6448 33.0619 24.3209 28.1973 33.0619 37.3395 28.1973 31.9541 37.3395 41.4816 31.9541 35.5916 41.4816 45.4905 35.5916 39.1104 45.4905 49.3673 39.1104 42.5114 49.3673 53.1128 42.5114 45.7955 53.1128 56.7272 45.7955 48.963 56.7272 60.2106 48.963 52.0146 60.2106 63.5629 52.0146 54.9504 63.5629 66.7841 54.9504 57.7707 66.7841 69.8741 57.7707 60.4756 69.8741 72.8327 60.4756 63.0652 72.8327 75.6599 63.0652 65.5396 75.6599 78.3555 65.5396 67.8988 78.3555 80.9195 67.8988 70.143 80.9195 83.3515 70.143 72.272 83.3515 85.6515 72.272 74.2862 85.6515 87.8191 74.2862 76.1855 87.8191 89.8538 76.1855 77.9701 89.8538 91.7552 77.9701 79.6405 91.7552 93.5224 79.6405 81.1969 93.5224 95.1544 81.1969 82.64 95.1544 96.65 82.64 83.9704 96.65 98.0076 83.9704 85.1888 98.0076 99.2249 85.1888 86.2953 99.2249 100.299 86.2953 87.2892 100.299 101.227 87.2892 88.1677 101.227 102.005 88.1677 88.9248 102.005 102.627 88.9248 89.5498 102.627 103.091 89.5498 90.0283 103.091 103.4 90.0283 90.3473 103.4 103.565 90.3473 90.5065 103.565 103.62 90.5065 90.5352 103.62 103.626 90.5352 90.5086 0 3.84116 0 3.18657 3.84116 7.88959 3.18657 6.51974 7.88959 12.0552 6.51974 9.96185 12.0552 16.2288 9.96185 13.4456 16.2288 20.3278 13.4456 16.9098 20.3278 24.3209 16.9098 20.3122 24.3209 28.1973 20.3122 23.6307 28.1973 31.9541 23.6307 26.8547 31.9541 35.5916 26.8547 29.9794 35.5916 39.1104 29.9794 33.0029 39.1104 42.5114 33.0029 35.9248 42.5114 45.7955 35.9248 38.7453 45.7955 48.963 38.7453 41.4648 48.963 52.0146 41.4648 44.0839 52.0146 54.9504 44.0839 46.6028 54.9504 57.7707 46.6028 49.022 57.7707 60.4756 49.022 51.3419 60.4756 63.0652 51.3419 53.5625 63.0652 65.5396 53.5625 55.6843 65.5396 67.8988 55.6843 57.7074 67.8988 70.143 57.7074 59.6319 70.143 72.272 59.6319 61.4584 72.272 74.2862 61.4584 63.187 74.2862 76.1855 63.187 64.8184 76.1855 77.9701 64.8184 66.3535 77.9701 79.6405 66.3535 67.7931 79.6405 81.1969 67.7931 69.1389 81.1969 82.64 69.1389 70.3928 82.64 83.9704 70.3928 71.5569 83.9704 85.1888 71.5569 72.634 85.1888 86.2953 72.634 73.6264 86.2953 87.2892 73.6264 74.5354 87.2892 88.1677 74.5354 75.3599 88.1677 88.9248 75.3599 76.0931 88.9248 89.5498 76.0931 76.7203 89.5498 90.0283 76.7203 77.2163 90.0283 90.3473 77.2163 77.5508 90.3473 90.5065 77.5508 77.7044 90.5065 90.5352 77.7044 77.6976 90.5352 90.5086 77.6976 77.6149 0 3.18657 0 2.59465 3.18657 6.51974 2.59465 5.29463 6.51974 9.96185 5.29463 8.08141 9.96185 13.4456 8.08141 10.9166 13.4456 16.9098 10.9166 13.7567 16.9098 20.3122 13.7567 16.5661 20.3122 23.6307 16.5661 19.3202 23.6307 26.8547 19.3202 22.0042 26.8547 29.9794 22.0042 24.6099 29.9794 33.0029 24.6099 27.1334 33.0029 35.9248 27.1334 29.5727 35.9248 38.7453 29.5727 31.9272 38.7453 41.4648 31.9272 34.1969 41.4648 44.0839 34.1969 36.3823 44.0839 46.6028 36.3823 38.4836 46.6028 49.022 38.4836 40.5012 49.022 51.3419 40.5012 42.4357 51.3419 53.5625 42.4357 44.2873 53.5625 55.6843 44.2873 46.0563 55.6843 57.7074 46.0563 47.7431 57.7074 59.6319 47.7431 49.348 59.6319 61.4584 49.348 50.8716 61.4584 63.187 50.8716 52.3145 63.187 64.8184 52.3145 53.6776 64.8184 66.3535 53.6776 54.9621 66.3535 67.7931 54.9621 56.1695 67.7931 69.1389 56.1695 57.3023 69.1389 70.3928 57.3023 58.3632 70.3928 71.5569 58.3632 59.3557 71.5569 72.634 59.3557 60.2843 72.634 73.6264 60.2843 61.1532 73.6264 74.5354 61.1532 61.9667 74.5354 75.3599 61.9667 62.7264 75.3599 76.0931 62.7264 63.429 76.0931 76.7203 63.429 64.061 76.7203 77.2163 64.061 64.5915 77.2163 77.5508 64.5915 64.9702 77.5508 77.7044 64.9702 65.1438 77.7044 77.6976 65.1438 65.1046 77.6976 77.6149 65.1046 64.9416 0 2.59465 0 2.04135 2.59465 5.29463 2.04135 4.15729 5.29463 8.08141 4.15729 6.33882 8.08141 10.9166 6.33882 8.56319 10.9166 13.7567 8.56319 10.8017 13.7567 16.5661 10.8017 13.0273 16.5661 19.3202 13.0273 15.2185 19.3202 22.0042 15.2185 17.3606 22.0042 24.6099 17.3606 19.4444 24.6099 27.1334 19.4444 21.4646 27.1334 29.5727 21.4646 23.4184 29.5727 31.9272 23.4184 25.3046 31.9272 34.1969 25.3046 27.1227 34.1969 36.3823 27.1227 28.873 36.3823 38.4836 28.873 30.5556 38.4836 40.5012 30.5556 32.1711 40.5012 42.4357 32.1711 33.7196 42.4357 44.2873 33.7196 35.2017 44.2873 46.0563 35.2017 36.6177 46.0563 47.7431 36.6177 37.9679 47.7431 49.348 37.9679 39.2529 49.348 50.8716 39.2529 40.4732 50.8716 52.3145 40.4732 41.6296 52.3145 53.6776 41.6296 42.723 53.6776 54.9621 42.723 43.755 54.9621 56.1695 43.755 44.7274 56.1695 57.3023 44.7274 45.6429 57.3023 58.3632 45.6429 46.5047 58.3632 59.3557 46.5047 47.3173 59.3557 60.2843 47.3173 48.0859 60.2843 61.1532 48.0859 48.8168 61.1532 61.9667 48.8168 49.5167 61.9667 62.7264 49.5167 50.192 62.7264 63.429 50.192 50.8464 63.429 64.061 50.8464 51.4758 64.061 64.5915 51.4758 52.0577 64.5915 64.9702 52.0577 52.528 64.9702 65.1438 52.528 52.7821 65.1438 65.1046 52.7821 52.7354 65.1046 64.9416 52.7354 52.4674 0 2.04135 0 1.51285 2.04135 4.15729 1.51285 3.0767 4.15729 6.33882 3.0767 4.68712 6.33882 8.56319 4.68712 6.33079 8.56319 10.8017 6.33079 7.98938 10.8017 13.0273 7.98938 9.64403 13.0273 15.2185 9.64403 11.2785 15.2185 17.3606 11.2785 12.8806 17.3606 19.4444 12.8806 14.4419 19.4444 21.4646 14.4419 15.9572 21.4646 23.4184 15.9572 17.4236 23.4184 25.3046 17.4236 18.8396 25.3046 27.1227 18.8396 20.2046 27.1227 28.873 20.2046 21.5185 28.873 30.5556 21.5185 22.7815 30.5556 32.1711 22.7815 23.9939 32.1711 33.7196 23.9939 25.156 33.7196 35.2017 25.156 26.2681 35.2017 36.6177 26.2681 27.3307 36.6177 37.9679 27.3307 28.3439 37.9679 39.2529 28.3439 29.3084 39.2529 40.4732 29.3084 30.2246 40.4732 41.6296 30.2246 31.0933 41.6296 42.723 31.0933 31.9155 42.723 43.755 31.9155 32.6926 43.755 44.7274 32.6926 33.4264 44.7274 45.6429 33.4264 34.1194 45.6429 46.5047 34.1194 34.7749 46.5047 47.3173 34.7749 35.3973 47.3173 48.0859 35.3973 35.992 48.0859 48.8168 35.992 36.5661 48.8168 49.5167 36.5661 37.1281 49.5167 50.192 37.1281 37.6884 50.192 50.8464 37.6884 38.2589 50.8464 51.4758 38.2589 38.8506 51.4758 52.0577 38.8506 39.4657 52.0577 52.528 39.4657 40.0763 52.528 52.7821 40.0763 40.5184 52.7821 52.7354 40.5184 40.5572 52.7354 52.4674 40.5572 40.1525 0 1.51285 0 1.00048 1.51285 3.0767 1.00048 2.0328 3.0767 4.68712 2.0328 3.0949 4.68712 6.33079 3.0949 4.17934 6.33079 7.98938 4.17934 5.2753 7.98938 9.64403 5.2753 6.37104 9.64403 11.2785 6.37104 7.45586 11.2785 12.8806 7.45586 8.52119 12.8806 14.4419 8.52119 9.56089 14.4419 15.9572 9.56089 10.5709 15.9572 17.4236 10.5709 11.5489 17.4236 18.8396 11.5489 12.4935 18.8396 20.2046 12.4935 13.4041 20.2046 21.5185 13.4041 14.2806 21.5185 22.7815 14.2806 15.1232 22.7815 23.9939 15.1232 15.9319 23.9939 25.156 15.9319 16.7069 25.156 26.2681 16.7069 17.4487 26.2681 27.3307 17.4487 18.1573 27.3307 28.3439 18.1573 18.8331 28.3439 29.3084 18.8331 19.4765 29.3084 30.2246 19.4765 20.0879 30.2246 31.0933 20.0879 20.6678 31.0933 31.9155 20.6678 21.2171 31.9155 32.6926 21.2171 21.7368 32.6926 33.4264 21.7368 22.2284 33.4264 34.1194 22.2284 22.6939 34.1194 34.7749 22.6939 23.1358 34.7749 35.3973 23.1358 23.5578 35.3973 35.992 23.5578 23.9644 35.992 36.5661 23.9644 24.3617 36.5661 37.1281 24.3617 24.7581 37.1281 37.6884 24.7581 25.1646 37.6884 38.2589 25.1646 25.5972 38.2589 38.8506 25.5972 26.0779 38.8506 39.4657 26.0779 26.6382 39.4657 40.0763 26.6382 27.3093 40.0763 40.5184 27.3093 28.1064 40.5184 40.5572 28.1064 28.4499 40.5572 40.1525 28.4499 27.9529 0 1.00048 0 0.497914 1.00048 2.0328 0.497914 1.01114 2.0328 3.0949 1.01114 1.53886 3.0949 4.17934 1.53886 2.07776 4.17934 5.2753 2.07776 2.62281 5.2753 6.37104 2.62281 3.1684 6.37104 7.45586 3.1684 3.70925 7.45586 8.52119 3.70925 4.241 8.52119 9.56089 4.241 4.76042 9.56089 10.5709 4.76042 5.26532 10.5709 11.5489 5.26532 5.75437 11.5489 12.4935 5.75437 6.22682 12.4935 13.4041 6.22682 6.68233 13.4041 14.2806 6.68233 7.12078 14.2806 15.1232 7.12078 7.5422 15.1232 15.9319 7.5422 7.94668 15.9319 16.7069 7.94668 8.33434 16.7069 17.4487 8.33434 8.7053 17.4487 18.1573 8.7053 9.05971 18.1573 18.8331 9.05971 9.39773 18.8331 19.4765 9.39773 9.71955 19.4765 20.0879 9.71955 10.0254 20.0879 20.6678 10.0254 10.3156 20.6678 21.2171 10.3156 10.5907 21.2171 21.7368 10.5907 10.8511 21.7368 22.2284 10.8511 11.0976 22.2284 22.6939 11.0976 11.3315 22.6939 23.1358 11.3315 11.5541 23.1358 23.5578 11.5541 11.7674 23.5578 23.9644 11.7674 11.974 23.9644 24.3617 11.974 12.1777 24.3617 24.7581 12.1777 12.3833 24.7581 25.1646 12.3833 12.5984 25.1646 25.5972 12.5984 12.8343 25.5972 26.0779 12.8343 13.1096 26.0779 26.6382 13.1096 13.4563 26.6382 27.3093 13.4563 13.9383 27.3093 28.1064 13.9383 14.6632 28.1064 28.4499 14.6632 16.0153 28.4499 27.9529 16.0153 15.4038 0 0.497914 0 -1.04275e-12 0.497914 1.01114 -1.04275e-12 -5.46917e-12 1.01114 1.53886 -5.46917e-12 -6.30275e-12 1.53886 2.07776 -6.30275e-12 -8.45583e-12 2.07776 2.62281 -8.45583e-12 -8.4377e-12 2.62281 3.1684 -8.4377e-12 -1.11506e-11 3.1684 3.70925 -1.11506e-11 -1.11843e-11 3.70925 4.241 -1.11843e-11 -9.27734e-12 4.241 4.76042 -9.27734e-12 -6.34446e-12 4.76042 5.26532 -6.34446e-12 -4.79807e-12 5.26532 5.75437 -4.79807e-12 -4.9206e-12 5.75437 6.22682 -4.9206e-12 -7.473e-12 6.22682 6.68233 -7.473e-12 -8.34764e-12 6.68233 7.12078 -8.34764e-12 -1.13532e-11 7.12078 7.5422 -1.13532e-11 -1.46187e-11 7.5422 7.94668 -1.46187e-11 -1.53043e-11 7.94668 8.33434 -1.53043e-11 -1.67156e-11 8.33434 8.7053 -1.67156e-11 -1.78134e-11 8.7053 9.05971 -1.78134e-11 -1.64426e-11 9.05971 9.39773 -1.64426e-11 -1.4074e-11 9.39773 9.71955 -1.4074e-11 -1.07301e-11 9.71955 10.0254 -1.07301e-11 -8.24546e-12 10.0254 10.3156 -8.24546e-12 -8.62294e-12 10.3156 10.5907 -8.62294e-12 -6.69118e-12 10.5907 10.8511 -6.69118e-12 -4.5515e-12 10.8511 11.0976 -4.5515e-12 -2.22718e-12 11.0976 11.3315 -2.22718e-12 2.10677e-12 11.3315 11.5541 2.10677e-12 4.98495e-12 11.5541 11.7674 4.98495e-12 4.97875e-12 11.7674 11.974 4.97875e-12 6.2974e-12 11.974 12.1777 6.2974e-12 5.56571e-12 12.1777 12.3833 5.56571e-12 3.49945e-12 12.3833 12.5984 3.49945e-12 3.08503e-12 12.5984 12.8343 3.08503e-12 3.6133e-13 12.8343 13.1096 3.6133e-13 -3.71803e-12 13.1096 13.4563 -3.71803e-12 -8.11775e-12 13.4563 13.9383 -8.11775e-12 -1.05462e-11 13.9383 14.6632 -1.05462e-11 -1.3149e-11 14.6632 16.0153 -1.3149e-11 -1.266e-11 16.0153 15.4038 -1.266e-11 -1.68042e-11 0 -1.04275e-12 0 -0.497914 -1.04275e-12 -5.46917e-12 -0.497914 -1.01114 -5.46917e-12 -6.30275e-12 -1.01114 -1.53886 -6.30275e-12 -8.45583e-12 -1.53886 -2.07776 -8.45583e-12 -8.4377e-12 -2.07776 -2.62281 -8.4377e-12 -1.11506e-11 -2.62281 -3.1684 -1.11506e-11 -1.11843e-11 -3.1684 -3.70925 -1.11843e-11 -9.27734e-12 -3.70925 -4.241 -9.27734e-12 -6.34446e-12 -4.241 -4.76042 -6.34446e-12 -4.79807e-12 -4.76042 -5.26532 -4.79807e-12 -4.9206e-12 -5.26532 -5.75437 -4.9206e-12 -7.473e-12 -5.75437 -6.22682 -7.473e-12 -8.34764e-12 -6.22682 -6.68233 -8.34764e-12 -1.13532e-11 -6.68233 -7.12078 -1.13532e-11 -1.46187e-11 -7.12078 -7.5422 -1.46187e-11 -1.53043e-11 -7.5422 -7.94668 -1.53043e-11 -1.67156e-11 -7.94668 -8.33434 -1.67156e-11 -1.78134e-11 -8.33434 -8.7053 -1.78134e-11 -1.64426e-11 -8.7053 -9.05971 -1.64426e-11 -1.4074e-11 -9.05971 -9.39773 -1.4074e-11 -1.07301e-11 -9.39773 -9.71955 -1.07301e-11 -8.24546e-12 -9.71955 -10.0254 -8.24546e-12 -8.62294e-12 -10.0254 -10.3156 -8.62294e-12 -6.69118e-12 -10.3156 -10.5907 -6.69118e-12 -4.5515e-12 -10.5907 -10.8511 -4.5515e-12 -2.22718e-12 -10.8511 -11.0976 -2.22718e-12 2.10677e-12 -11.0976 -11.3315 2.10677e-12 4.98495e-12 -11.3315 -11.5541 4.98495e-12 4.97875e-12 -11.5541 -11.7674 4.97875e-12 6.2974e-12 -11.7674 -11.974 6.2974e-12 5.56571e-12 -11.974 -12.1777 5.56571e-12 3.49945e-12 -12.1777 -12.3833 3.49945e-12 3.08503e-12 -12.3833 -12.5984 3.08503e-12 3.6133e-13 -12.5984 -12.8343 3.6133e-13 -3.71803e-12 -12.8343 -13.1096 -3.71803e-12 -8.11775e-12 -13.1096 -13.4563 -8.11775e-12 -1.05462e-11 -13.4563 -13.9383 -1.05462e-11 -1.3149e-11 -13.9383 -14.6632 -1.3149e-11 -1.266e-11 -14.6632 -16.0153 -1.266e-11 -1.68042e-11 -16.0153 -15.4038 0 -0.497914 0 -1.00048 -0.497914 -1.01114 -1.00048 -2.0328 -1.01114 -1.53886 -2.0328 -3.0949 -1.53886 -2.07776 -3.0949 -4.17934 -2.07776 -2.62281 -4.17934 -5.2753 -2.62281 -3.1684 -5.2753 -6.37104 -3.1684 -3.70925 -6.37104 -7.45586 -3.70925 -4.241 -7.45586 -8.52119 -4.241 -4.76042 -8.52119 -9.56089 -4.76042 -5.26532 -9.56089 -10.5709 -5.26532 -5.75437 -10.5709 -11.5489 -5.75437 -6.22682 -11.5489 -12.4935 -6.22682 -6.68233 -12.4935 -13.4041 -6.68233 -7.12078 -13.4041 -14.2806 -7.12078 -7.5422 -14.2806 -15.1232 -7.5422 -7.94668 -15.1232 -15.9319 -7.94668 -8.33434 -15.9319 -16.7069 -8.33434 -8.7053 -16.7069 -17.4487 -8.7053 -9.05971 -17.4487 -18.1573 -9.05971 -9.39773 -18.1573 -18.8331 -9.39773 -9.71955 -18.8331 -19.4765 -9.71955 -10.0254 -19.4765 -20.0879 -10.0254 -10.3156 -20.0879 -20.6678 -10.3156 -10.5907 -20.6678 -21.2171 -10.5907 -10.8511 -21.2171 -21.7368 -10.8511 -11.0976 -21.7368 -22.2284 -11.0976 -11.3315 -22.2284 -22.6939 -11.3315 -11.5541 -22.6939 -23.1358 -11.5541 -11.7674 -23.1358 -23.5578 -11.7674 -11.974 -23.5578 -23.9644 -11.974 -12.1777 -23.9644 -24.3617 -12.1777 -12.3833 -24.3617 -24.7581 -12.3833 -12.5984 -24.7581 -25.1646 -12.5984 -12.8343 -25.1646 -25.5972 -12.8343 -13.1096 -25.5972 -26.0779 -13.1096 -13.4563 -26.0779 -26.6382 -13.4563 -13.9383 -26.6382 -27.3093 -13.9383 -14.6632 -27.3093 -28.1064 -14.6632 -16.0153 -28.1064 -28.4499 -16.0153 -15.4038 -28.4499 -27.9529 0 -1.00048 0 -1.51285 -1.00048 -2.0328 -1.51285 -3.0767 -2.0328 -3.0949 -3.0767 -4.68712 -3.0949 -4.17934 -4.68712 -6.33079 -4.17934 -5.2753 -6.33079 -7.98938 -5.2753 -6.37104 -7.98938 -9.64403 -6.37104 -7.45586 -9.64403 -11.2785 -7.45586 -8.52119 -11.2785 -12.8806 -8.52119 -9.56089 -12.8806 -14.4419 -9.56089 -10.5709 -14.4419 -15.9572 -10.5709 -11.5489 -15.9572 -17.4236 -11.5489 -12.4935 -17.4236 -18.8396 -12.4935 -13.4041 -18.8396 -20.2046 -13.4041 -14.2806 -20.2046 -21.5185 -14.2806 -15.1232 -21.5185 -22.7815 -15.1232 -15.9319 -22.7815 -23.9939 -15.9319 -16.7069 -23.9939 -25.156 -16.7069 -17.4487 -25.156 -26.2681 -17.4487 -18.1573 -26.2681 -27.3307 -18.1573 -18.8331 -27.3307 -28.3439 -18.8331 -19.4765 -28.3439 -29.3084 -19.4765 -20.0879 -29.3084 -30.2246 -20.0879 -20.6678 -30.2246 -31.0933 -20.6678 -21.2171 -31.0933 -31.9155 -21.2171 -21.7368 -31.9155 -32.6926 -21.7368 -22.2284 -32.6926 -33.4264 -22.2284 -22.6939 -33.4264 -34.1194 -22.6939 -23.1358 -34.1194 -34.7749 -23.1358 -23.5578 -34.7749 -35.3973 -23.5578 -23.9644 -35.3973 -35.992 -23.9644 -24.3617 -35.992 -36.5661 -24.3617 -24.7581 -36.5661 -37.1281 -24.7581 -25.1646 -37.1281 -37.6884 -25.1646 -25.5972 -37.6884 -38.2589 -25.5972 -26.0779 -38.2589 -38.8506 -26.0779 -26.6382 -38.8506 -39.4657 -26.6382 -27.3093 -39.4657 -40.0763 -27.3093 -28.1064 -40.0763 -40.5184 -28.1064 -28.4499 -40.5184 -40.5572 -28.4499 -27.9529 -40.5572 -40.1525 0 -1.51285 0 -2.04135 -1.51285 -3.0767 -2.04135 -4.15729 -3.0767 -4.68712 -4.15729 -6.33882 -4.68712 -6.33079 -6.33882 -8.56319 -6.33079 -7.98938 -8.56319 -10.8017 -7.98938 -9.64403 -10.8017 -13.0273 -9.64403 -11.2785 -13.0273 -15.2185 -11.2785 -12.8806 -15.2185 -17.3606 -12.8806 -14.4419 -17.3606 -19.4444 -14.4419 -15.9572 -19.4444 -21.4646 -15.9572 -17.4236 -21.4646 -23.4184 -17.4236 -18.8396 -23.4184 -25.3046 -18.8396 -20.2046 -25.3046 -27.1227 -20.2046 -21.5185 -27.1227 -28.873 -21.5185 -22.7815 -28.873 -30.5556 -22.7815 -23.9939 -30.5556 -32.1711 -23.9939 -25.156 -32.1711 -33.7196 -25.156 -26.2681 -33.7196 -35.2017 -26.2681 -27.3307 -35.2017 -36.6177 -27.3307 -28.3439 -36.6177 -37.9679 -28.3439 -29.3084 -37.9679 -39.2529 -29.3084 -30.2246 -39.2529 -40.4732 -30.2246 -31.0933 -40.4732 -41.6296 -31.0933 -31.9155 -41.6296 -42.723 -31.9155 -32.6926 -42.723 -43.755 -32.6926 -33.4264 -43.755 -44.7274 -33.4264 -34.1194 -44.7274 -45.6429 -34.1194 -34.7749 -45.6429 -46.5047 -34.7749 -35.3973 -46.5047 -47.3173 -35.3973 -35.992 -47.3173 -48.0859 -35.992 -36.5661 -48.0859 -48.8168 -36.5661 -37.1281 -48.8168 -49.5167 -37.1281 -37.6884 -49.5167 -50.192 -37.6884 -38.2589 -50.192 -50.8464 -38.2589 -38.8506 -50.8464 -51.4758 -38.8506 -39.4657 -51.4758 -52.0577 -39.4657 -40.0763 -52.0577 -52.528 -40.0763 -40.5184 -52.528 -52.7821 -40.5184 -40.5572 -52.7821 -52.7354 -40.5572 -40.1525 -52.7354 -52.4674 0 -2.04135 0 -2.59465 -2.04135 -4.15729 -2.59465 -5.29463 -4.15729 -6.33882 -5.29463 -8.08141 -6.33882 -8.56319 -8.08141 -10.9166 -8.56319 -10.8017 -10.9166 -13.7567 -10.8017 -13.0273 -13.7567 -16.5661 -13.0273 -15.2185 -16.5661 -19.3202 -15.2185 -17.3606 -19.3202 -22.0042 -17.3606 -19.4444 -22.0042 -24.6099 -19.4444 -21.4646 -24.6099 -27.1334 -21.4646 -23.4184 -27.1334 -29.5727 -23.4184 -25.3046 -29.5727 -31.9272 -25.3046 -27.1227 -31.9272 -34.1969 -27.1227 -28.873 -34.1969 -36.3823 -28.873 -30.5556 -36.3823 -38.4836 -30.5556 -32.1711 -38.4836 -40.5012 -32.1711 -33.7196 -40.5012 -42.4357 -33.7196 -35.2017 -42.4357 -44.2873 -35.2017 -36.6177 -44.2873 -46.0563 -36.6177 -37.9679 -46.0563 -47.7431 -37.9679 -39.2529 -47.7431 -49.348 -39.2529 -40.4732 -49.348 -50.8716 -40.4732 -41.6296 -50.8716 -52.3145 -41.6296 -42.723 -52.3145 -53.6776 -42.723 -43.755 -53.6776 -54.9621 -43.755 -44.7274 -54.9621 -56.1695 -44.7274 -45.6429 -56.1695 -57.3023 -45.6429 -46.5047 -57.3023 -58.3632 -46.5047 -47.3173 -58.3632 -59.3557 -47.3173 -48.0859 -59.3557 -60.2843 -48.0859 -48.8168 -60.2843 -61.1532 -48.8168 -49.5167 -61.1532 -61.9